formula,sym_val,ehull_c2db,decomp_energy_m2,gap_c2db,gap_m2,magmom_u_c2db,total_magnetization_m2,energy_c2db,energy_per_atom_m2,natoms_m2,total_energy_m2
V2O10P2,129,0.0,0.020047459285715163,1.566338683389259,1.9341,0.0,-0.0001299,-110.06688883283877,-7.349644207857144,14,-102.89501891
V2P2S6,162,0.10153962993774997,0.10788037492187463,0.0,0.0,,4.9417866,-57.1603309814571,-5.853061307,10,-58.53061307
V2S2,129,0.24868821890907578,0.2559458499999998,0.0,0.0,,0.638496,-28.057192961760798,-7.3177308725,4,-29.27092349
V2Se2,129,0.09696066297060835,0.13304762562500017,0.0,0.0,,0.4623539,-26.177816278071237,-6.83010741,4,-27.32042964
V2Te2,129,0.09221214913861864,0.09850918749999948,0.0,0.0,,-0.0224664,-24.31182310858938,-6.323148325,4,-25.2925933
V3Te6,12,0.015062166920965106,0.0123566811111111,0.0,0.0,,2.5751892,-47.56642176343049,-5.417600388888889,9,-48.7584035
V4F12O4,14,0.0,0.0,3.464959394230294,3.5795999999999992,0.0,0.0010664,-128.7584133045779,-5.902482418,20,-118.04964835999999
V4O10,11,0.016521761116121882,0.0334578178571423,1.5640209043972364,2.4337999999999997,0.0,5.37e-05,-116.99141960906216,-7.4217975492857144,14,-103.90516569
V4O10,59,0.0,0.02849240571428524,2.062259099069487,2.4589,0.0,3.3e-06,-117.22272426468787,-7.4267629614285715,14,-103.97468146
V4O8,12,0.08263578762543489,0.1368491866666659,0.3043577292641606,1.0526,,3.9989164,-101.9610654663177,-7.6377921933333335,12,-91.65350632
V4S10,59,0.2387469156654556,0.2571174105357139,,0.5320999999999998,,4.99e-05,-82.193574583361,-6.042809607857143,14,-84.59933451
VBr2,164,0.0,0.0,1.2515456308077084,1.2040000000000002,3.00006714890565,3.0026087,-14.283001674904968,-4.961086823333333,3,-14.88326047
VBr2O,47,0.03422278462928485,0.013136024999999663,0.0,0.4088000000000003,,0.9980859,-22.382833012648437,-5.0624594725,4,-20.24983789
VCl2,164,0.0,0.0,1.3537333608201,1.2961999999999998,3.0000387716520223,3.0021073,-15.61483467619956,-5.404039966666667,3,-16.2121199
VCl2O,47,0.04460117946784603,0.09640418843749998,0.0,1.0705999999999998,,1.0035019,-23.626582130280042,-5.38006514,4,-21.52026056
VF2O,25,0.001045241728220514,0.06723342171874958,0.7585795535608204,2.1064999999999996,1.0000111765680015,0.9998021,-27.649146379281426,-6.4226086775,4,-25.69043471
VF4,123,0.012184888472778965,0.013075499000000157,0.11749657088056686,1.9863,,1.0023408,-29.44731341796003,-5.624893152,5,-28.12446576
VFO2,6,0.03470005182227087,0.07790500729166627,2.694124821457497,2.4932,0.0,-4e-07,-30.128188278873722,-6.7337674875,4,-26.93506995
VI2,164,0.0,0.0,1.2024738224217448,1.1625,3.001176472312777,3.0031553,-12.951733090596157,-4.523541916666667,3,-13.570625750000001
VS2,187,0.0,0.0,0.027824911089106008,0.027899999999999814,,0.9939223,-19.317688258911172,-6.646569696666667,3,-19.93970909
VSe2,164,0.016064963593240833,0.0,0.0,0.0,,0.7304109,-17.566254236836077,-6.04491861,3,-18.13475583
VTe2,164,0.018191868318283715,0.022632576666666182,0.0,0.0,,1.0069919,-15.846084816951542,-5.422550650000001,3,-16.26765195
W2Br4O4,26,0.0,0.06884268499999813,1.1487080649315975,0.8546999999999993,,-0.0,-64.9707186756265,-5.387522459,10,-53.87522459
W2Br6,162,0.21821556009223175,0.23517728156249973,,0.81,,6.0034176,-34.84083109896882,-4.71568191625,8,-37.72545533
W2Cl4O4,26,0.0,0.07855194166666912,2.186680311482485,1.6973000000000003,,0.0,-67.51534318190367,-5.638167737,10,-56.38167737
W2Cl6,162,0.10765715078254523,0.22310357666666736,0.4871859274393734,0.7679,,6.0012197,-39.35086623606975,-5.18147069375,8,-41.45176555
W2F4O4,26,0.0,0.0,2.359577213631714,1.6176999999999992,,-0.0,-75.71072322230151,-6.472927559,10,-64.72927559
W2F6,162,0.1739050083253173,0.005777984999999042,,4.1269,,5.9995383,-50.686457038389676,-5.6823737425,8,-45.45898994
W2H4O8,31,0.06632875497097247,0.10356392964285721,0.7261656753462313,1.4939999999999998,,0.0,-100.8653361618904,-6.314902203571428,14,-88.40863085
W2H6,11,0.1293692651531018,0.09387310728499987,0.0,0.0,,-2.8e-06,-41.882481211097215,-5.57583591875,8,-44.60668735
W2H8,129,0.06315837916355349,0.016773757103999642,0.0,0.0233000000000001,,0.0,-48.934851503172396,-5.1669407960000004,10,-51.66940796
W2I6,162,0.06918454102309557,0.08779704375000019,0.7053828109482884,0.7545,,6.0057059,-31.287512608240252,-4.29140391625,8,-34.33123133
W2N3,187,0.11572510593959326,0.1491601549999988,0.0,0.0,,-2.28e-05,-48.996257357177875,-10.275145076,5,-51.37572538
W2S2,129,0.560397472518416,0.5789150987500005,0.0,0.0,,0.0001649,-31.505625841842896,-8.5809036225,4,-34.32361449
W2S4,11,0.17721974841898933,0.18308689000000022,0.0,0.021700000000000053,,0.0,-43.46067752845487,-7.710129365,6,-46.26077619
W2Se2,129,0.4485639210314183,0.4670206412500004,0.0,0.0,,-0.0010905,-29.924910947945776,-8.17720708,4,-32.70882832
W2Se4,11,0.09169690959264543,0.09541500000000092,0.0318612736948361,0.02090000000000014,,0.0,-39.91771636172271,-7.110346588333333,6,-42.66207953
W2Te2,129,0.3179568475798318,0.34042612562500096,0.0,0.0,,6.6e-06,-28.5155293365012,-7.789847625,4,-31.1593905
W2Te4,11,0.0,0.0,0.0,0.07329999999999992,,0.0,-36.60427800877674,-6.514269998333333,6,-39.08561999
W2Zn2O8,13,0.020580944679933804,0.04338606916666876,3.3697384319349157,3.8625,,-0.0,-90.0883315366027,-6.4829504558333335,12,-77.79540547
WI2,164,0.6642501795090391,0.6282440966666671,0.0,0.0,,2.0025785,-12.449318347758608,-4.704337436666667,3,-14.113012310000002
WS2,187,0.0,0.0015751608333332001,1.5336240776237322,1.8023999999999998,,0.0,-22.261998009484405,-7.891075959999999,3,-23.67322788
WSe2,187,0.0,0.0017080850000006365,1.237876337239032,1.5272000000000001,,-0.0,-20.23394890963929,-7.203791793333333,3,-21.61137538
WTe2,187,0.02629539608146203,0.030060454166667583,0.7271129177540188,1.0613,,-0.0,-18.223252816143983,-6.490429173333333,3,-19.47128752
Y2Br2,164,0.017193658790805255,0.024139490000000485,0.0,0.0,,1.5193915,-17.718827741029173,-5.302775925,4,-21.2111037
Y2Br2O2,164,0.0026624483724167667,0.0,3.491502087094321,4.3099,,0.0,-40.77270950133956,-7.262705215,6,-43.57623129
Y2Br6,162,4.440892098500626e-16,0.0,4.086510250660241,4.0441,,-0.0,-34.59673339046176,-4.7541220375,8,-38.0329763
Y2Br6,59,0.05591609074848547,0.058002686250000046,2.9108786262450086,2.8143000000000002,,-0.0,-34.14940466447388,-4.7015039625,8,-37.6120317
Y2C,164,0.3657383612408663,0.26609907133333266,0.0,0.0,,0.0192597,-18.491477948193662,-7.312362526666667,3,-21.93708758
Y2C2I2,12,0.0,0.0,0.0,0.0,,1.02e-05,-36.20500439714016,-6.600875108333334,6,-39.60525065
Y2Cl2,164,0.03947072731617163,0.05100704041666759,0.0,0.0,,1.5700064,-19.106397131121554,-5.6465248075,4,-22.58609923
Y2Cl2O2,164,0.0,0.0,4.395327785439134,4.9464,,0.0,-42.2713953474542,-7.509357485,6,-45.05614491
Y2Cl6,162,0.0,0.0,5.1126171768740125,4.9775,,0.0,-38.850677517894425,-5.280266535,8,-42.24213228
Y2Cl6,59,0.041445317475049315,0.042927670000000084,3.8576924868241695,3.7199,,0.0,-38.51911497809403,-5.24228538375,8,-41.93828307
Y2F2,164,0.17027513820014306,0.26069044958333354,,0.0,,1.5366192,-22.953095280318152,-6.6473869825,4,-26.58954793
Y2F6,162,0.0,0.15734706687499944,7.72766527046932,7.6204,,-0.0,-52.13651376124074,-6.9739026075,8,-55.79122086
Y2I2,164,0.09363845296357076,0.09649445166666659,0.0,0.0,,1.3750394,-15.889755885831766,-4.85501211,4,-19.42004844
Y2I2O2,164,0.06087980089403544,0.06151111500000095,1.8161562820185695,2.5913,,-0.0,-38.90801744442323,-6.958921681666666,6,-41.75353009
Y2I6,162,0.0008254916978196469,0.0,2.7557446070052514,2.8542999999999994,,0.0,-30.020251421360165,-4.1877754625,8,-33.5022037
Y2S6,129,0.14357314952419098,0.0,,0.0,,4e-07,-43.37350383703491,-5.84428851375,8,-46.75430811
Y2Se6,129,0.0,0.0,0.0,0.0,,-2e-06,-40.014699560514636,-5.42563129375,8,-43.40505035
Y2Te6,129,0.0,0.0,0.0,0.0,,-5.8e-06,-36.11120744578902,-4.898912585,8,-39.19130068
YBr2,187,0.016448334704337302,0.01532103749999969,0.34398152695814743,0.3369,,1.0046763,-13.046738937550526,-4.933321866666667,3,-14.7999656
YCl2,187,0.045503871077878934,0.04857332055555563,0.37387574862540923,0.3954000000000002,,1.004253,-14.406901848432268,-5.380794496666667,3,-16.14238349
YF2,187,0.26510292634920357,0.38803135361110996,,1.1730999999999998,,1.0073988,-18.147368619542256,-6.668827573333334,3,-20.00648272
YI2,187,0.0027463297045565347,0.0,0.1422167609420472,0.1714,,1.0037624,-11.564552274043523,-4.44834357,3,-13.34503071
Zn2As4O8,4,0.0,0.009548745952382198,3.604868620916253,3.5759,,-0.0,-80.38005870813369,-5.633307517142858,14,-78.86630524
Zn2Ge2O6,162,0.11933395552917467,0.14328711266666616,2.744861932687167,2.7475,,0.0,-57.05852553257359,-5.590012521,10,-55.90012521
Zn2H4O8Se2,7,0.005600792234087049,0.02384779515624924,4.4521794824085665,4.4671,,0.0,-81.17173804258066,-4.965143464375,16,-79.44229543
Zn2O6Si2,162,0.23931503535347112,0.263274403833333,3.401514013993147,3.2590000000000003,,0.0,-64.13876945399038,-6.3223552949999995,10,-63.22355295
Zn2P2S6,162,0.019821561512676576,0.01378656229310593,2.0860131779540954,2.1485,,0.0,-41.703277617311564,-4.217137591,10,-42.17137591
Zn2S2,129,0.2298384715485331,0.2350844649999999,,2.755,,0.0,-12.922614762137378,-3.27384157,4,-13.09536628
Zn2Se2,129,0.15710608426703887,0.16168509749999993,2.0415314669042957,2.1824,,0.0,-11.579781556840361,-2.9308979375,4,-11.72359175
Zn2Te2,129,0.12438993399243242,0.13096528500000026,,0.7488000000000001,,0.0,-10.169106592314412,-2.544758645,4,-10.17903458
ZnB2C8N8,164,0.5130725381444684,0.45547241811736594,5.1642934398183655,5.220599999999999,,0.0,-151.02303385765117,-7.91125578,19,-150.31385982
ZnBr2,115,1.4802973661668753e-16,0.0107378804166669,3.2723897035892007,3.3797000000000006,,-0.0,-7.12440536429353,-2.4111973166666667,3,-7.23359195
ZnBr2,164,0.08032168622171361,0.08801142041666665,3.352786197876543,3.4767,,-0.0,-6.8834403056283895,-2.333923776666667,3,-7.00177133
ZnCl2,115,0.0,0.007873636666666961,4.2130547053809835,4.3187,,0.0,-8.261240660900908,-2.7906400366666664,3,-8.37192011
ZnCl2,164,0.06212212896423767,0.068784326666667,4.452870715551238,4.516299999999999,,-0.0,-8.074874274008195,-2.7297293466666663,3,-8.18918804
ZnF2,115,0.11176624088838061,0.14311122333333337,4.424517187411544,4.571300000000001,,0.0,-11.253862015218075,-3.84557212,3,-11.53671636
ZnF2,164,0.03886102297916535,0.07345006666666665,4.505831697772569,4.6651,,-0.0,-11.472577668945721,-3.9152332766666667,3,-11.74569983
ZnH2O2,164,0.08567805031255774,0.10014200749999969,2.3331582592586857,2.3383000000000003,,-0.0,-23.886260805935834,-4.69899383,5,-23.49496915
ZnI2,115,0.003073634883523191,0.019110896458333304,2.4314249851976726,2.646,,-0.0,-5.979295465539559,-2.0350977566666666,3,-6.10529327
ZnI2,164,0.124459539567499,0.13880980979166657,1.749002181217528,2.0149,,0.0,-5.615137751487632,-1.9153988433333333,3,-5.74619653
Zr2Br2,164,0.6974054785742654,0.0,0.04498351427892122,0.0,,0.0,-19.340798463558645,-6.098107235,4,-24.39242894
Zr2Br2N2,164,0.0,0.0,1.6180290775462298,2.572,,-0.0,-44.96709379915083,-7.778561606666667,6,-46.67136964
Zr2Br2N2,59,0.011426815343069071,0.013084038333333048,1.8162218454811796,1.736,,-0.0,-44.89853290709242,-7.765401505,6,-46.59240903
Zr2Br4,11,0.0,0.0,0.591027974971079,0.5758000000000001,,0.0,-29.181481376787975,-5.23628527,6,-31.41771162
Zr2Br6,162,0.07284816846665709,0.08530041374999975,0.0,0.0,,2.0004382,-35.22807457735104,-4.67920242,8,-37.43361936
Zr2Cl2,164,0.7419945956190199,0.0,0.03645341801920854,0.0,,1.2e-06,-20.715593244969096,-6.4771163375,4,-25.90846535
Zr2Cl2N2,164,2.9605947323337506e-16,0.2348267100000001,1.9229505723919929,3.0509,,0.0,-46.39285060827392,-7.77484651,6,-46.64907906
Zr2Cl4,11,0.028758640152693953,0.03133294999999947,0.5958053936543117,0.6154000000000002,,-0.0,-32.0041763022159,-5.694005826666667,6,-34.16403496
Zr2F4,11,0.27646667411751125,0.28218628416666647,,0.7993000000000001,,0.0,-38.83472390613657,-6.867414381666666,6,-41.20448629
Zr2Ge2Te2,129,0.010364975655171804,0.0,0.0,0.0,,-4.87e-05,-35.01028002513788,-6.212228311666667,6,-37.27336987
Zr2Ge2Te8,31,0.007381627583946819,0.003051951666666497,0.5215688801928247,0.6493,,0.0,-55.73939547312677,-4.794963125833333,12,-57.539557509999995
Zr2I2N2,164,0.03310493306018595,0.027887456666666033,0.28394156983588936,1.8319999999999999,,0.0,-43.11132389690655,-7.481976496666667,6,-44.89185898
Zr2I2N2,59,0.0,0.0,1.1039320488794666,1.3413999999999997,,-0.0,-43.30995349526766,-7.5095771283333335,6,-45.05746277
Zr2I4,11,0.0,0.0018379333333333747,0.4286812148478634,0.43230000000000013,,-0.0,-26.18552961491043,-4.75502727,6,-28.530163620000003
Zr2PTe2,164,0.001602348401975462,0.0,0.0,0.0,,7.8e-06,-32.28403244134077,-6.868428838,5,-34.34214419
Zr2S10,59,0.13489239752317314,0.0,0.2463413213742376,0.16669999999999963,,0.0,-63.99727592916656,-5.506841901666667,12,-66.08210282
Zr2S2,129,0.3876181553872309,0.4613457424999998,0.0,0.0,,8.8e-06,-27.065869964590128,-7.3104643375,4,-29.24185735
Zr2S6,59,0.0,0.0,1.1818621131210456,1.1275,,0.0,-49.303715569754374,-6.4317025475,8,-51.45362038
Zr2Se10,59,0.0,0.004855946302083858,0.3038960583511634,0.2166999999999999,,0.0,-58.36154257638167,-5.028243544166666,12,-60.33892252999999
Zr2Se2,129,0.3789154646235411,0.3257680565277772,0.0,0.0,,0.0001765,-25.095261230231372,-6.82534778,4,-27.30139112
Zr2Se2Si2,129,0.01592941777189827,0.0,0.0,0.0,,8.7e-06,-39.106895899910555,-6.882032536666667,6,-41.29219522
Zr2Se6,59,0.0,0.0,0.4096178305363375,0.44819999999999993,,-0.0,-44.32868589666272,-5.80275204375,8,-46.42201635
Zr2Si2Te2,129,0.008545168497973302,0.0,0.0,0.0,,-0.0001363,-36.909850031596015,-6.499658005000001,6,-38.99794803
Zr2Te10,59,0.0,0.0,0.1906391449159064,0.022599999999999953,,-0.0,-53.02637601285437,-4.5397339316666665,12,-54.476807179999994
Zr2Te2,129,0.4363556175323948,0.4337153675000005,0.0,0.0,,-0.0008729,-23.154306161853874,-6.3110763625,4,-25.24430545
Zr2Te6,59,0.0,0.007914525833334629,0.0,0.0,,1e-07,-39.68069793236994,-5.17885215625,8,-41.43081725
Zr3S2,123,0.0,0.0,0.0,0.0,,-4.6e-06,-36.571996632543964,-7.969146382,5,-39.84573191
Zr3Se2,123,0.0,0.0,0.0,0.0,,-7.7e-06,-34.519211036001,-7.562441638,5,-37.81220819
Zr3Te2,123,0.05170578626544149,0.056133103285713304,0.0,0.0,,-7e-07,-32.30607292567476,-7.102390422000001,5,-35.51195211
ZrAs2,164,0.6674376374235393,0.6224121549999992,0.0,0.0,,-0.0,-17.31520258648959,-6.172569096666667,3,-18.51770729
ZrBr2,164,0.10546844109695346,0.07204802166666724,0.0,0.0,,4e-07,-14.274335365103127,-5.13643553,3,-15.40930659
ZrCl2,187,0.0,0.0,0.9805987984608411,1.6073,,-0.0,-16.088364071566033,-5.72472824,3,-17.17418472
ZrF2,164,0.3087310910173808,0.32665387249999966,,0.0,,0.0,-19.320568702368675,-6.822946793333333,3,-20.46884038
ZrH2O6P2,164,0.0,0.0,4.2804850310600795,4.134,,-0.0,-79.395139,-7.2033051809090916,11,-79.23635699
ZrI2,164,0.13817237004262495,0.1354339024999991,0.0,0.0,,0.0001585,-12.67824769732734,-4.621624436666667,3,-13.86487331
ZrO2,164,0.21655976245711983,0.23388844833333344,4.448263427526731,4.123,,-0.0,-27.54775594606739,-9.270663963333334,3,-27.81199189
ZrP2,164,1.0127528863138515,0.8750991441666676,,0.0,,-0.0001626,-18.117835698374268,-6.54355584,3,-19.63066752
ZrS2,164,0.0,0.0,1.1591954974296987,1.1262000000000003,,0.0,-20.315588552224472,-7.1160958433333334,3,-21.34828753
ZrSb2,164,0.32920185378493255,0.32261204624999973,0.0,0.0,,7e-07,-16.951869508079213,-5.83698209,3,-17.51094627
ZrSe2,164,0.0,0.0,0.33654977709111544,0.4588000000000001,,-0.0,-18.470336634042514,-6.50456999,3,-19.51370997