formula,sym_val,ehull_c2db,decomp_energy_m2,gap_c2db,gap_m2,magmom_u_c2db,total_magnetization_m2,energy_c2db,energy_per_atom_m2,natoms_m2,total_energy_m2
Bi2I2O2,129,0.0,0.0,1.0170631748839314,1.5306000000000002,,-0.0,-28.53684818964076,-4.4329633033333335,6,-26.59777982
Bi2I6,162,0.0,0.009219637499999767,1.3769780431671466,2.5333999999999994,,0.0,-22.17623259824552,-2.58703989875,8,-20.69631919
Bi2In2,129,0.0939139082897098,0.1243013925000005,0.03717174432881709,0.0,,-2e-07,-14.505103954533737,-3.188443305,4,-12.75377322
Bi2Mn2Br2S4,10,0.1455208506256283,0.17626819299999763,,0.0,,10.0042939,-52.31947236928347,-4.9846315599999995,10,-49.8463156
Bi2Mn2Cl2S4,26,0.12657938643847277,0.1590353664999995,,0.23019999999999996,,10.020303,-53.54300559364629,-5.104010915,10,-51.04010915
Bi2Mn2I2Se4,10,0.1350770061890354,0.13560132249999857,,0.0017000000000000348,,10.0046059,-48.453805096090186,-4.582772887,10,-45.82772887
Bi2MnTe4,164,0.03575216304556404,0.008760136428571208,0.11020990426606136,0.8198,5.0000545485301515,5.0002289,-33.0776796291545,-4.40048959,7,-30.803427130000003
Bi2Ni,123,0.1509628521357662,0.1388445150000006,,0.0,,-3.2e-06,-16.31317970750791,-4.402438883333333,3,-13.20731665
Bi2O9Si3,174,0.12154112908001226,0.1584473401785722,3.7325113606502986,4.2462,,0.0,-101.58219096268941,-7.0202916235714286,14,-98.28408273
Bi2PbSe4,164,0.0,0.002625059999999735,0.28865436364396,0.9501000000000001,,-0.0,-30.160146946517003,-4.071334668571429,7,-28.49934268
Bi2PbTe4,164,3.172065784643304e-17,0.006910612857135678,0.11660193004179531,1.045,,0.0,-27.91890792056038,-3.7143319514285715,7,-26.00032366
Bi2Pd,123,0.09548862797860795,0.10271386500000013,0.0,0.0,,9e-07,-13.636828727772997,-4.45671559,3,-13.37014677
Bi2Pt,123,0.1916443830212954,0.19929458499999964,,0.0,,1.1e-06,-15.954058666166135,-4.654265606666667,3,-13.962796820000001
Bi2S3,164,0.004481394609992861,0.0046670425000003846,0.46999257714183007,1.1042999999999998,,0.0,-23.39611822401179,-4.374473876,5,-21.87236938
Bi2STe2,164,0.0029916665157784907,0.0,0.1580506163183651,0.9331,,-0.0,-21.27939956815742,-3.9189637759999996,5,-19.59481888
Bi2Se2Te,164,0.03392059725280783,0.039182571,0.11061620671630423,1.1357000000000002,,-0.0,-21.066457911110245,-3.885995528,5,-19.42997764
Bi2Se3,164,0.0,0.0,0.2433187304809601,0.8890999999999998,,0.0,-21.742539505990297,-4.036052476,5,-20.180262380000002
Bi2SeTe2,164,0.00048399919570769613,0.0,0.12088839139441887,0.8830000000000001,,-0.0,-20.72716229277973,-3.806758906,5,-19.03379453
Bi2SnTe4,164,0.0,0.006256082857143408,0.013903955044487937,0.7931,,0.0,-27.949933787670393,-3.7251783742857145,7,-26.07624862
Bi2Te3,164,0.000450131609218829,0.0,0.08323111913859499,0.9707,,-0.0,-20.104534865468775,-3.668742094,5,-18.34371047
Bi2Ti,164,0.13288952838593757,0.13165061187499916,0.0,0.0,,-4.2e-06,-16.07829435270544,-5.22399843,3,-15.67199529
Bi2Tl2,129,0.28899874280573146,0.3293276991666665,,0.0,,2e-07,-13.230339460476037,-2.818345105,4,-11.27338042
Bi2Zr,164,0.1359599501397367,0.1197748883333336,0.0,0.0,,2.8e-06,-17.270123866525548,-5.604707056666666,3,-16.81412117
Bi4B4O12,14,0.03909826496014546,0.050050366000002455,2.864869750225151,3.7412,,-0.0,-144.2347653257986,-6.904791980000001,20,-138.0958396
Bi4O6,11,0.0631286442830536,0.11367670449999956,2.875695051378547,3.0424,,0.0,-61.21956276765801,-5.639199883,10,-56.39199883
Bi4Sr2O8,11,0.0,0.0,2.704086347886675,2.6793,,-0.0,-87.75896738812024,-5.894690234285714,14,-82.52566328
Bi6Pt3,157,0.10169776099254631,0.09762236055555551,0.0,0.0,,-3.6e-06,-48.67169559675715,-4.755937831111111,9,-42.80344048
BiBrTe,156,0.0,0.0,0.5910806856682358,1.6510000000000002,,0.0,-10.97526561812054,-3.38476648,3,-10.15429944
BiClTe,156,0.1391662479614335,0.0,0.5306819176371946,1.8037,,-0.0,-11.069258202750731,-3.54575662,3,-10.63726986
BiCuP2Se6,143,0.0,0.00024198262500085832,1.0086883391795731,1.2766,0.0,0.0,-41.80036649011796,-4.146228821999999,10,-41.46228821999999
BiITe,156,0.0033324379925610734,0.0,0.4124843673462051,1.5743999999999998,,0.0,-10.469900152714834,-3.2155309066666664,3,-9.64659272
BiO2,164,0.24181203641344742,0.2187232950000002,,0.0,,0.0074655,-17.37521569092941,-5.376419469999999,3,-16.12925841
Br2Ge,164,0.0,0.0,2.300947904894432,2.3501000000000003,,-0.0,-9.50798815565172,-3.2073616499999997,3,-9.62208495
Br6P2,162,0.05921985414098768,0.1572952943749999,2.2398930912395727,2.1968999999999994,,-0.0,-22.331867444127408,-2.80705421625,8,-22.45643373
Br6Sb2,162,0.0,0.0,2.3329873204110596,2.4434,,-0.0,-23.540802589045654,-2.8808842625,8,-23.0470741
C2,191,0.0,0.0021296299999988832,0.0003000685114302737,9.999999999976694e-05,,-0.0,-18.453766945888727,-9.220301235,2,-18.44060247
C2H2,164,0.004499304927557651,0.06233917843750003,3.4601107430494684,3.4891,,-0.0,-25.622677875921283,-6.405403505,4,-25.62161402
C6N8,187,0.26912719551467895,0.08649011613999846,1.2653015773792378,1.1724999999999999,,0.0,-118.41361712378088,-8.411017697857144,14,-117.75424777
Ca2Br2H2,129,0.0,0.0,4.194451569662164,4.1537,,0.0,-22.107876475383296,-3.6791839716666668,6,-22.07510383
Ca2Cl2F2,129,0.012101454898505892,0.0242468666666662,6.020166734741515,6.110799999999999,,-0.0,-30.12858060118817,-5.052764981666667,6,-30.316589890000003
Ca2Cl4O8,125,0.18076248002615727,0.13917955833333284,2.8187533495237416,2.9306,,-0.0,-64.21456916781177,-4.472475660714286,14,-62.61465925
Ca2Co2Si2,129,0.10802075198922845,0.11680942833333319,,0.0,,-0.0001369,-33.806541372937716,-5.246428538333333,6,-31.47857123
Ca2Cu2,191,0.1758459289819722,0.18465931174999994,,0.0,,-6.5e-06,-11.378067283429708,-3.014307665,4,-12.05723066
Ca2CuBr2O2,123,0.0,0.0,0.0,0.0,,0.0001373,-34.66828599602037,-4.950744714285714,7,-34.655213
Ca2CuCl2O2,123,0.013630135827782703,0.020284489285715246,0.0,0.0,,-8.6e-06,-35.89401831868502,-5.126611858571429,7,-35.88628301
Ca2H2I2,129,0.0,0.0,3.6284093040565244,3.8095,,-0.0,-20.55433576380092,-3.419811465,6,-20.51886879
Ca2H4O12P2,7,0.34947894662802953,0.29127014518750016,0.26742957979972104,0.2010999999999994,,6.0027536,-119.08740108183365,-5.8328860795,20,-116.65772159
Ca2Mn2Ge2,129,0.23497077479118214,0.23464947999999808,0.0,0.0,,4.7033759,-33.72774386100197,-5.4686412,6,-32.8118472
Ca2Mn2Si2,129,0.1769874582855829,0.19008129058333445,0.0,0.0,,3.1315563,-35.63922940257685,-5.7579555566666665,6,-34.54773334
Ca2Mn2Sn2,129,0.37550536548478486,0.3607906983333331,,0.0,,7.535272,-31.937110531026,-5.128498023333333,6,-30.77098814
Ca2N,164,0.21999547556847196,0.13902782479166742,0.0,0.0,,0.0016267,-14.012491303517209,-4.6368556666666665,3,-13.910567
Ca2Ni2Ge2,129,0.16341985885237875,0.16084591099999912,,0.0,,-0.0013437,-29.945034029028648,-4.514101245,6,-27.08460747
Ca2O8Sb4,11,0.0,0.09887809815476434,3.003848169646221,2.2005,,0.0,-89.60570001065501,-6.047852786428571,14,-84.66993901
Ca2Sn4F12,2,0.0,0.01906120111111065,3.9244302934724953,3.9867,,-0.0,-92.3561158366166,-5.181965567222222,18,-93.27538021
Ca3Cu2Br2O4,123,0.0,0.0,0.0,0.0,,1.17e-05,-57.865445170224525,-5.258491870909091,11,-57.84341058
Ca3Cu2Cl2O4,123,0.0,0.007954482727274836,0.0,0.0,,-5.1e-06,-59.103290648140586,-5.371288582727273,11,-59.08417441000001
Ca3Fe2Cl2O5,123,0.02062031717587705,0.0655415633333325,0.0,0.7414999999999999,,10.0266649,-78.79576539794057,-5.9805511825,12,-71.76661419
Ca4Fe2Cl2O6,129,0.006385727740081647,0.03403135999999929,0.0,0.8457,,10.016129,-92.0667480893614,-6.068225505,14,-84.95515707
CaBr2,115,0.17902853148562414,0.16491552666666642,4.741576167858905,4.8495,,-0.0,-10.92661139025599,-3.6411575033333334,3,-10.92347251
CaBr2,164,0.0,0.0,4.862661452815692,4.8702000000000005,,0.0,-11.463696984712863,-3.81961929,3,-11.45885787
CaCl2,115,0.1921264266785805,0.1969313933333332,5.53009095512323,5.6388,,0.0,-12.299188610782663,-4.09802699,3,-12.29408097
CaCl2,164,0.00996392925645336,0.01434507000000007,5.783509188690621,5.7299999999999995,,-0.0,-12.845676103049044,-4.280613313333333,3,-12.84183994
CaF2,115,0.32557402407998143,0.33619823666666626,6.450905302244969,6.4838000000000005,,0.0,-16.348899367520858,-5.5228670766666665,3,-16.56860123
CaF2,164,0.12187543351096981,0.14057247666666672,7.157281169654316,7.162599999999999,,0.0,-16.959995139227892,-5.718492836666666,3,-17.15547851
CaH2O2,164,0.013728361613001994,0.01436408999999994,3.712782682619406,3.6708,,-0.0,-28.52945318368809,-5.603761568,5,-28.01880784
CaI2,115,0.1737089822859493,0.18064554999999993,3.9751289204681304,4.0132,,-0.0,-9.446337326900826,-3.145222276666667,3,-9.43566683
CaI2,164,0.0,0.0,3.5370804094414625,3.8625000000000003,,0.0,-9.967464273758674,-3.31998087,3,-9.95994261
Cd2H4O8Se2,31,0.0,0.014890997187499977,4.103775366960745,4.2024,,0.0,-79.974632957194,-4.878402398125,16,-78.05443837
Cd2O4Si,21,0.36966820313857596,0.417388518928572,,2.319,,0.0,-38.01970424689015,-5.275837411428571,7,-36.93086188
Cd2P2S6,162,0.0,0.0027396650000000022,1.88666479741874,2.1510000000000002,,0.0,-41.2163683133518,-4.1487019080000005,10,-41.48701908
CdBr2,115,0.019701050570094598,0.03285490666666657,2.9252368794755625,3.0243,,0.0,-6.74599500943963,-2.24840641,3,-6.74521923
CdBr2,164,0.0,0.0049013466666667505,3.069156177744195,3.2859999999999996,,-0.0,-6.805098161149914,-2.2753855566666665,3,-6.82615667
CdCl2,164,0.0,0.0,3.8682847684144472,3.9477,,0.0,-7.8494209353682525,-2.622425826666667,3,-7.86727748
CdClHO,156,0.03269194871847092,0.05729366312499984,2.516984536306866,2.5717999999999996,,0.0,-15.445094125345845,-3.804473375,4,-15.2178935
CdF2,115,0.20839724128360762,0.24096670999999947,3.7914070150211656,3.8549999999999995,,-0.0,-10.364214423238087,-3.513617586666667,3,-10.54085276
CdF2,164,0.051728733719581456,0.07960151333333254,3.806965817767722,3.9391,,0.0,-10.834219945930165,-3.6749827833333337,3,-11.02494835
CdGaInS4,156,0.0751274756469625,0.34397734678571323,0.41158694158055686,0.0,,-0.0016152,-27.046420582034035,-3.6137265828571428,7,-25.29608608
CdH2O2,164,0.023655733356264363,0.0346737070000005,2.2442019040795484,2.2721,,0.0,-23.164367607854643,-4.530568912,5,-22.65284456
CdI2,115,0.003129156922625498,0.0,2.335345414146648,2.5820999999999996,,-0.0,-5.764500812829397,-1.9254164666666667,3,-5.7762494
CdI2,164,0.03020909311933817,0.00446399355555549,2.135734719012448,2.4768,,0.0,-5.683261004239259,-1.9052906166666668,3,-5.71587185
CdO,187,0.2429349269688479,0.2825670750000002,,0.8237999999999999,,0.0,-7.641593939918892,-3.673820335,2,-7.34764067
CdPb2Cl2O2,12,0.0,0.0,2.8687677451653126,3.7001,,-0.0,-30.75000369069329,-4.29915984,7,-30.094118879999996
Cl2Ge,164,0.0,0.021668495208333916,2.6174761734350778,2.7636000000000003,,-0.0,-10.46242316141491,-3.523583573333333,3,-10.57075072
Cl2Si,164,0.5446337553063988,0.5850910729166663,,2.1863,,-0.0,-10.437116159968701,-3.4937652033333335,3,-10.48129561
Co2Br6,162,0.0,0.0,0.9617757836632959,0.9111000000000002,,0.0,-29.211080168725704,-3.353485915,8,-26.82788732
Co2Li2As2,129,0.10261293215324467,0.05695683555555586,0.0,0.0,,0.0257949,-32.01099220083611,-4.949989173333333,6,-29.69993504
Co2Mg2Ge2,129,0.24555796767883584,0.1767930131818174,,0.0,,-0.0002042,-29.068193036854282,-4.483603491666667,6,-26.90162095
Co2P2S6,162,0.07252204425434323,0.09290151868556507,0.005581244441278166,0.0,,0.0201893,-54.12581093902568,-5.188981364,10,-51.88981364
Co2S2,129,0.05112521558442873,0.04879409291666725,0.0,0.0,,0.9380316,-26.373906197748727,-6.03513021,4,-24.14052084
Co2Se2,129,0.01632877075435263,0.016501253749999556,0.0,0.0,,0.7776404,-24.487936325145096,-5.5591880025,4,-22.23675201
Co2Sr3Cl2O5,123,0.059700898091624786,0.053161477031254734,0.0,0.0,,4.079077,-74.5859555671544,-5.591464054166667,12,-67.09756865
Co2Te2,129,0.07911458351574119,0.08619761499999967,0.0,0.0,,0.1054045,-23.217851722925673,-5.188783095,4,-20.75513238
CoBr2,164,0.022610865176922196,0.0,0.34787677198035416,0.04310000000000036,2.9957878355492995,2.9997479,-12.412111320302882,-3.7422043133333336,3,-11.22661294
CoCl2,164,0.020613191437690286,0.0,0.3509199720523193,0.10970000000000013,2.999994873473108,2.9994669,-13.60647120752759,-4.13507008,3,-12.40521024
CoCl2O8,147,0.22633972836521246,0.0,0.7352967496028073,3.0358,3.0000049263858655,3.0031453,-53.043009256077845,-4.469990133636364,11,-49.16989147000001
CoF2,164,0.0,0.37881223333333214,0.5971911522551561,0.0,2.9999983579339102,3.0001131,-16.80565818625544,-4.70326089,3,-14.109782670000001
CoI2,164,0.11219386458287355,0.01971728333333367,0.0,0.0,,2.7448371,-11.217009226167207,-3.36298699,3,-10.08896097
CoO2,164,0.0,0.30689958916666615,0.0,0.0,,3.0004383,-21.216976395215397,-5.398353226666667,3,-16.19505968
CoS2,164,0.11007326432441289,0.12141447833333352,0.0,0.0,,0.4097374,-17.21736317853492,-5.344812683333333,3,-16.03443805
CoSe2,164,0.0534220665881282,0.06465724500000025,0.0,0.0,,0.0018552,-15.973485557590022,-4.9229146366666665,3,-14.76874391
CoTe2,164,0.07267753119333757,0.061111998333333695,0.0,0.0,,9e-07,-15.087525884633383,-4.5858527633333335,3,-13.75755829
Cr2Br2O2,59,0.026605656887977485,0.03422472851851843,0.500718559655394,1.5075000000000003,5.999994321970128,6.0056078,-40.860002870674826,-6.125868996666667,6,-36.75521398
Cr2Br2S2,59,0.0028189661107117145,0.0,0.45542557727948996,0.2927999999999997,5.999997046097263,6.0020836,-34.98215616569408,-5.8900956383333325,6,-35.34057383
Cr2Br4,14,0.06327982555154794,0.08395408537036975,0.4948373258840997,0.3239000000000001,8.000054434495588,8.0020324,-29.30036314267764,-4.933201161666667,6,-29.599206970000004
Cr2Br6,162,0.0,0.0,1.5095584261634603,1.4035999999999995,6.000039983857244,6.0039171,-35.11148309001401,-4.4340588975,8,-35.47247118
Cr2Cl2O2,59,0.0002616883824930009,0.0,0.647494553676041,1.8635000000000002,6.000061030841769,6.0027401,-42.27900023573508,-6.373452031666667,6,-38.24071219
Cr2Cl4,14,0.052729095283468475,0.07762239981481489,0.7530470063681092,0.5042,8.000110101574414,8.0020471,-31.873438159536974,-5.359219091666667,6,-32.15531455
Cr2Cl6,162,0.0,0.0028589024999998713,1.735204358611071,1.6135000000000006,6.000017998721614,6.0032201,-38.8761390428903,-4.90761770125,8,-39.26094161
Cr2Cu2O8,51,0.024131121468926153,0.06923840572916529,0.11985499936130406,0.11639999999999961,1.9996792701672164,2.0000154,-81.42796545301225,-6.104791588333334,12,-73.25749906
Cr2Cu2P4S12,4,0.0,0.00036534364062390523,1.0781258515783114,1.0128,6.000128030175415,6.0173612,-104.03855444569487,-5.283526953,20,-105.67053906
Cr2F2O2,59,0.0,0.012460473888889823,0.8842344915815028,2.3496,5.999984017265463,6.0006601,-46.13343644605455,-7.068856538333333,6,-42.41313923
Cr2F4,14,0.11661621862987677,0.0,1.396367589055298,3.0558999999999994,8.00074634838566,8.0041276,-39.13986080127762,-6.248102783333334,6,-37.4886167
Cr2F6,162,0.032350153195983555,0.06985935875000138,2.022764132797049,3.5486000000000004,5.999999294591169,5.9999437,-50.09195589005108,-5.9393547075,8,-47.51483766
Cr2Ge2Te6,162,0.0019828470455586,0.0,0.1251176616710028,0.4844999999999997,6.0003961298042325,6.0023135,-48.918650887046,-4.894520631000001,10,-48.94520631
Cr2I6,162,0.0,0.0,0.8906930450962061,1.0747,5.999994794256489,6.0012323,-31.398628752313062,-3.97610480375,8,-31.80883843
Cr2Nb2Se10,11,0.00499551626872119,0.002392234317462716,0.0,0.0,,5.4685789,-82.88634812817388,-5.888391974285715,14,-82.43748764
Cr2P2S8,12,7.401486830834377e-17,0.0,0.8192017285673383,0.7349000000000001,,6.0030249,-67.66630007254717,-5.6895552525,12,-68.27466303
Cr2S2,129,0.12375472520124298,0.11635171562499913,0.0,0.0,,-0.6931611,-28.94553252523444,-7.3548977175,4,-29.41959087
Cr2S4,11,0.1072927752814697,0.0,0.0,0.0,,-2.8e-06,-38.52129654495708,-6.520816338333333,6,-39.12489803
Cr2Se2,129,0.14343062239075,0.1277398158333325,0.0,0.0,,0.6523783,-27.078565551454943,-6.86988722,4,-27.47954888
Cr2Se4,11,0.05134273145066596,0.026297636666666513,0.0,0.0,,-1e-07,-35.3557150354784,-5.96558465,6,-35.7935079
Cr2Si2Te6,162,0.002117705406396908,0.0,0.2715553738877152,0.5923999999999998,6.000201620108736,6.0011081,-50.8612683441415,-5.074372671,10,-50.74372671
Cr2Te2,129,0.20885287206041356,0.21196747124999948,,0.0,,-0.6275422,-25.19383340986088,-6.3513594125,4,-25.40543765
Cr2Te4,11,0.09102457746377605,0.028281185000000875,0.0,0.0,,4.685513,-32.37419621853933,-5.470276043333333,6,-32.82165626
Cr3S4,164,0.05041985265224521,0.07394915499999843,0.0,0.0,,8.9435402,-49.119583829546734,-7.0879496457142865,7,-49.61564752
Cr3Se4,164,0.04972152098070686,0.058912128095237826,0.0,0.0,,9.9458577,-45.54794538120456,-6.561703932857143,7,-45.93192753
Cr3Te4,164,0.052852188762450805,0.06743428999999868,0.0,0.0,,9.9999048,-42.279944420901536,-6.056838740000001,7,-42.39787118
Cr4O10,59,0.0,0.09941767482142883,0.5003676756708755,0.6681000000000008,4.000229245787488,4.0006417,-111.63740680503076,-6.897077240714286,14,-96.55908137
Cr4S10,59,0.3599879513354511,0.14826619870535485,,0.29510000000000014,,-2e-07,-81.44640963944062,-5.912291683571429,14,-82.77208357
CrCuSe2,156,0.4922234309078748,0.5668365968750093,,0.0,,3.9365923,-19.881304215209592,-5.0316583125,4,-20.12663325
CrGa2S4,164,0.04679473911681788,0.0623018539285729,0.0,0.0,,3.7372777,-36.017755297726296,-5.212436598571428,7,-36.48705619
CrHO2,156,0.18142476244476158,0.20562405812500018,0.09150468715667959,1.1115,2.999994141461385,2.9997595,-28.877857710964896,-6.6470780375,4,-26.58831215
CrS2,164,0.17530134258627328,0.0003706066666664398,0.0,0.0,,2.0181896,-19.05662257056413,-6.489991266666667,3,-19.4699738
CrSe2,164,0.13974552383645764,0.011621327520833447,0.0,0.0,,2.1438787,-17.412649140581824,-5.975600946666667,3,-17.92680284
Cu2As2O6,162,0.34704793555681307,0.08562671000000233,,0.0,,2.4e-05,-53.19349401063725,-5.564228217,10,-55.64228217
Cu2As4Cl2S3,6,0.05071004369008059,0.06117261696969578,1.1980332681248513,1.1627999999999998,0.0,0.0,-44.640358079507564,-4.133347292727273,11,-45.46682022
Cu2Br2,129,0.0298248033084465,0.0020549399999998386,1.496000284097117,1.599,0.0,-0.0,-11.619198868064247,-3.116139935,4,-12.46455974
Cu2Br2,164,0.023692280776995922,0.0,1.5220541658489855,1.6474,0.0,-0.0,-11.64372895819005,-3.124523655,4,-12.49809462
Cu2Br2O4,17,0.05387198408949789,0.0366720242708336,0.43385827235305596,0.45870000000000033,0.0,0.0,-32.732296982510405,-4.0823239275,8,-32.65859142
Cu2Br2Se4,17,0.0,0.0,0.8361376969657832,0.7595999999999998,0.0,-0.0,-26.29341787696782,-3.3869068,8,-27.0952544
Cu2Br2Te4,17,0.01197177271227412,0.0,0.8727809729858376,0.8130000000000002,0.0,0.0,-25.009991124948918,-3.18876196375,8,-25.51009571
Cu2Br4,14,0.020798952243048063,0.04632849833333319,0.03705117413746395,0.0,,1.9982628,-15.50987131189868,-2.718022798333333,6,-16.30813679
Cu2C2Cl2O2,31,0.11940713574273021,0.11746810187500234,2.507920802133392,2.4835000000000003,0.0,0.0,-44.51437745263357,-5.58861557625,8,-44.70892461
Cu2C2N4,51,0.3677819905286963,0.19473552193499977,0.0,0.0,,-5.44e-05,-56.2738832816137,-7.112379135,8,-56.89903308
Cu2C4H4O8,14,0.20120610950738083,0.2286933097222219,0.20898020304381593,0.0,2.00108332481659,1.9979915,-113.61064706804981,-6.233452433333333,18,-112.2021438
Cu2Cl2,164,0.06862219022538651,0.01839788500000017,1.2276910678084825,1.3824,0.0,0.0,-12.453576728839613,-3.327264525,4,-13.3090581
Cu2Cl2,67,0.0,0.0,2.6120268581214994,2.6015,0.0,-0.0,-12.728065489741159,-3.38550367,4,-13.54201468
Cu2Cl2O4,17,0.034024540449084206,0.0,0.45221571877344147,0.7812999999999999,0.0,-0.0,-33.79008780296289,-4.225023825,8,-33.8001906
Cu2Cl2Se4,17,0.001171954268497366,0.0,0.8286570989467634,0.7783000000000002,0.0,0.0,-27.28364936724406,-3.51229419,8,-28.09835352
Cu2Cl2Te4,17,0.009220593008651079,0.0,0.8533488049947926,0.7781000000000002,0.0,0.0,-25.97443175889517,-3.30808717,8,-26.46469736
Cu2Cl4,14,0.003151750537734088,0.031549218333333684,0.2644407475296102,0.11369999999999969,1.9989193767974351,1.9989459,-17.52791515399677,-3.0556436216666665,6,-18.33386173
Cu2F2,164,0.2190279203597374,0.23538140375000038,0.0,0.0,,0.2743335,-14.467474934226498,-3.8857583475,4,-15.54303339
Cu2F2O4,17,0.04266396840825504,0.0,0.39162890445765175,0.8411,0.0,-0.0,-36.57170097847436,-4.6420636675,8,-37.13650934