formula,sym_val,ehull_c2db,decomp_energy_m2,gap_c2db,gap_m2,magmom_u_c2db,total_magnetization_m2,energy_c2db,energy_per_atom_m2,natoms_m2,total_energy_m2
Hf3Te2,123,0.0,0.0,0.0,0.0,,-6e-07,-31.962928865312016,-7.82772591,5,-39.13862955
HfAs2,164,0.6054888621541809,0.6020296716666662,0.0,0.0,,1.07e-05,-17.27534201638583,-6.576568483333333,3,-19.72970545
HfBr2,164,0.1312508945813994,0.07412195055555593,0.0,0.0,,-1.5e-06,-13.771321601565784,-5.432448533333333,3,-16.2973456
HfCl2,164,0.13517536730024915,0.13170551249999995,0.0,0.0,,-1e-07,-15.31101624126179,-5.945108373333333,3,-17.83532512
HfF2,164,0.48413261480811204,0.527771366944445,,0.0,,-5e-07,-18.844181766748882,-7.1958972900000004,3,-21.58769187
HfI2,164,0.2420168963083341,0.2339652294444452,0.0,0.0,,-1.6e-06,-12.102383755877671,-4.883543436666667,3,-14.65063031
HfP2,164,0.8929916378765975,0.8251462008333332,,0.0,,-4e-07,-18.156619772464875,-7.02737998,3,-21.08213994
HfS2,164,0.0,0.0,1.2211274004437893,1.3020999999999998,,-0.0,-20.439340185202234,-7.6498932433333335,3,-22.94967973
HfSb2,164,0.25786354360362534,0.2535697516666673,0.0,0.0,,-4e-07,-16.81396034252072,-6.230624556666666,3,-18.69187367
HfSe2,164,0.0,0.0,0.42656152531348224,0.6556000000000002,,-0.0,-18.518857514424067,-6.991119706666667,3,-20.97335912
HfTe2,164,0.006790113170872451,0.0,0.0,0.0,,-2e-07,-16.388187200970897,-6.235000586666666,3,-18.70500176
Hg2GeO4,21,0.11046125001583919,0.10472940928571539,2.5957896119548045,2.4807,,0.0,-32.53599225794614,-4.3283521885714284,7,-30.29846532
Hg2K4Cl8,11,0.06191911879704724,0.07044452857142769,3.330235495013453,2.6433000000000004,,-0.0,-39.868081086629175,-2.717280328571429,14,-38.0419246
Hg2O4Si,21,0.10198825852244729,0.1415479407142861,,2.5986,,0.0,-36.639487310801634,-4.916514174285714,7,-34.41559922
Hg2V2O6,2,0.035309429492909314,0.04938263962499967,2.181622243075511,2.4189,0.0,-0.0002748,-66.47562095800059,-5.8209072079999995,10,-58.20907208
Hg4I8,115,0.0,0.006417396041666468,1.6639636631658328,1.9006000000000003,,0.0,-19.64781458061382,-1.42324226,12,-17.07890712
Hg4Mo2O8,13,0.04461370944354875,0.048906512499998556,2.2784253741368343,2.2549000000000006,,-0.0,-85.2909648850858,-4.918209038571428,14,-68.85492654
Hg4W2O8,13,0.011455894780728013,0.01986275160714257,2.5058174653082097,2.2392,,-0.0,-87.5176455117038,-5.153931950714286,14,-72.15504731
HgBr2,12,0.0,0.0,2.791439144194647,2.5942999999999996,,0.0,-5.647570485913407,-1.6507664466666665,3,-4.95229934
HgCl2,115,0.03310305768601977,0.055226433333333214,2.467847069491337,2.4503000000000004,,-0.0,-6.326189477082163,-1.87515256,3,-5.62545768
HgCl2,164,0.02636999688974691,0.045004849999999985,2.4473333594552154,2.5222,,0.0,-6.346388659470982,-1.8853741433333333,3,-5.65612243
HgF2,164,0.03226711931028051,0.059361626666667,1.7281218969599035,1.9769000000000005,,-0.0,-8.688561909433485,-2.7149276199999997,3,-8.14478286
HgI2,115,0.005735874795356939,0.013660666041666492,1.540469691446846,1.8584999999999998,,0.0,-4.894746020767384,-1.41599899,3,-4.24799697
HgI2,12,0.026526576450399613,0.040972869374999776,2.2238037960331125,1.9596,,0.0,-4.832373915802256,-1.3886867866666668,3,-4.16606036
HgO,187,0.21134060794920256,0.21810226375000008,0.30189917776437625,0.2519,,0.0,-6.298945813858568,-2.697011175,2,-5.39402235
HgS,156,0.14626132104328887,0.14977616000000005,0.06468067001757216,0.024799999999999933,,-0.0,-5.0644788567999575,-2.198446105,2,-4.39689221
HgTe,156,0.1650276716787089,0.17816166499999997,0.15316851885532534,0.005999999999999783,,-0.0,-4.165704693062543,-1.713489565,2,-3.42697913
I2Si,164,0.25259755970895886,0.26833323611111126,,1.6557,,0.0,-8.602871744195555,-2.88511606,3,-8.65534818
I2Si,187,0.3885775329656869,0.4039094227777782,,1.5122,,0.0,-8.194931824425371,-2.749539873333333,3,-8.24861962
I6Sb2,162,0.0,0.0,1.8256443291130335,2.1727,,0.0,-20.670874005176994,-2.5245879375,8,-20.1967035
In2Br2O2,59,0.00011210646099968358,0.0,2.29031164324678,2.3891,,0.0,-26.714849817221175,-4.371347508333334,6,-26.228085050000004
In2Br6,162,1.1102230246251565e-16,0.0,2.7448821876954974,2.9321000000000006,,-0.0,-21.99907193308264,-2.7500358075,8,-22.00028646
In2Cl2O2,59,0.0,0.0,2.606966761019961,2.6454999999999997,,-0.0,-27.8658676345493,-4.563621583333333,6,-27.3817295
In2F2,129,0.22236469677385173,0.03498282500000016,,2.1553,,-0.0,-14.861548408216061,-3.9456690775,4,-15.78267631
In2F6,162,0.03847370586331067,0.08251070000000027,4.962830177173105,4.889799999999999,,0.0,-35.75535234631435,-4.52602652875,8,-36.20821223
In2MnSe4,156,0.06627105852301352,0.03901161238095252,0.0,0.0,,4.7386064,-32.267999402272935,-4.525343967142857,7,-31.67740777
In2S2,164,0.0036381567408017013,0.0,1.6042708260070087,1.6879,,0.0,-15.890455298418768,-3.9500936875,4,-15.80037475
In2S2,187,0.0,0.0,1.6751470544013318,1.7508,,0.0,-15.905007925381975,-3.9541342225,4,-15.81653689
In2S3,164,0.030459734198767307,0.037009409750000444,1.132273505125657,1.2342000000000002,,-0.0,-20.502753557608102,-4.085718878,5,-20.42859439
In2Sb2,129,0.22884687595041786,0.23467705999999966,,0.0,,0.0001468,-13.987634456117082,-3.31874005,4,-13.2749602
In2Se2,12,0.03759865809388696,0.04524361499999996,1.62977257448195,2.1011,,-0.0,-14.491374959945837,-3.5883238,4,-14.3532952
In2Se2,164,0.003261281077025391,0.006035695000000008,1.3212330836322175,1.4115,,-0.0,-14.628724468013283,-3.62753172,4,-14.51012688
In2Se2,187,0.0,0.33162331750000007,1.4040674539321087,0.6435,,0.0,-14.641769592321385,-3.3019440975,4,-13.20777639
In2Se3,164,0.03780502792618501,0.048779290333332614,0.434937521082428,0.4925999999999999,,0.0,-18.453532886279124,-3.6674633040000004,5,-18.33731652
In2Si2Te6,162,0.004587457108571158,0.0,0.6822323400707515,0.8586999999999998,,-0.0,-37.70041003047267,-3.725476192,10,-37.25476192
In2Te2,12,0.039154961303837776,0.009243762236842201,1.072289760550928,1.2225,,-0.0,-13.179971070538814,-3.2285823125,4,-12.91432925
In2Te2,164,0.0033772296965386417,0.0,1.1450366549343185,1.2766000000000002,,-0.0,-13.32308199696801,-3.27028764,4,-13.08115056
In2Te2,187,0.0,0.0,1.2326469781332072,1.4538000000000002,,0.0,-13.336590915754165,-3.2731387625,4,-13.09255505
In2Te3,164,0.07706151034517199,0.0825063380000004,0.0,0.0,,1.21e-05,-16.346887252512406,-3.2081935459999995,5,-16.04096773
In2Te5,12,0.004094513844838181,0.014174338571428802,1.0802648388894958,1.2663,,0.0,-23.158241895564863,-3.2424147214285712,7,-22.69690305
In2Zn2S5,156,0.09798493664001207,0.10280344208333236,0.0,0.0,,-6.46e-05,-33.61515644717334,-3.7471238444444444,9,-33.7241146
In2Zn3S6,156,0.09434506057589412,0.09819158261363814,0.0,0.0,,2.1e-06,-40.38020953476437,-3.6897354763636367,11,-40.58709024
In2ZnS4,156,0.06999916719327752,0.0766575183928575,0.019232057387222223,0.0,,0.0,-27.08604238241475,-3.870698697142857,7,-27.09489088
In3Te4,164,0.04212220775472332,0.03685763233082717,0.0,0.0,,-1.1e-06,-23.133676398559597,-3.2466136185714283,7,-22.72629533
In4Br4,57,0.06380831593721537,0.034963257499999845,1.8236886016494571,2.535,,-0.0,-22.439920019790808,-2.8308023725,8,-22.64641898
In4Br4Te4,14,0.0,0.0,2.0243073268428367,2.1671,,-0.0,-37.3641120969403,-3.0747225191666665,12,-36.89667023
In4I4Te4,14,0.0,0.0,1.7319850334131117,1.9599000000000002,,0.0,-35.19150633283108,-2.8960478933333333,12,-34.75257472
In4O6,31,0.1696812609759263,0.19208525700000045,1.5199588540463354,1.5267000000000002,,-0.0,-56.27855268749563,-5.462077291,10,-54.62077291
InAs,187,0.46288754070816074,0.46950914,0.0,0.0,,-0.0018331,-7.00877723690923,-3.468003,2,-6.936006
InLiI4O12,2,0.0,0.01763520333333357,2.7879634005989082,3.1383,,-0.0,-81.91477796806817,-4.551578213333333,18,-81.92840784
InN,187,0.48229007117008393,0.429415745,0.6155402894073063,0.5855999999999999,,-0.0,-10.1509901353283,-5.012522035,2,-10.02504407
Ir2Br6,162,0.0,0.0,1.5667560024213807,1.8151000000000002,,-0.0,-30.768667684270493,-3.73105631125,8,-29.84845049
Ir2Cl6,162,0.0,0.0016206393750000103,1.8225461291892902,2.134,,-0.0,-33.65805732158753,-4.0803160075,8,-32.64252806
Ir2I6,162,0.0,0.0,1.3583279291195096,1.5617,,-0.0,-28.67518702686149,-3.4969017475,8,-27.97521398
Ir2Nb2Te8,11,0.00801674279723493,0.0,0.04669293165274446,0.028699999999999948,,-0.0,-69.92552562879041,-5.642772850833333,12,-67.71327421
Ir2S2,129,0.3739548915860951,0.37504353416666714,0.0,0.0,,-1.3e-06,-26.620022237215643,-6.4160823375,4,-25.66432935
Ir2Se2,129,0.31667576450881363,0.32607075562500043,0.0,0.0,,-4.1e-06,-25.36593084466704,-6.100006405,4,-24.40002562
Ir2Ta2Te8,11,0.006570992976156968,0.0,0.0468847597531028,0.0242,,-1.5e-06,-68.50093437941177,-5.9002654525,12,-70.80318543
Ir2Te2,129,0.22423772611676746,0.24537292500000074,0.0,0.0,,6.2e-06,-25.06490843561159,-5.9762676375,4,-23.90507055
IrBr2,164,0.5102823932544621,0.5111312411111109,0.0,0.0,,1.0000857,-11.817285151812952,-3.7949659400000004,3,-11.38489782
IrCl2,164,0.587647765139638,0.5926709544444435,0.0,0.0,,0.9995996,-12.548318915263103,-4.022332843333333,3,-12.06699853
IrF2,164,0.860597326803501,0.799799928333333,,0.0,,0.24874,-13.714333480456931,-4.536822483333333,3,-13.61046745
IrI2,164,0.3856035109998142,0.3806995855555555,0.0,0.0,,0.0076154,-11.493494912773894,-3.717208513333333,3,-11.15162554
IrO2,164,0.2419142520160283,0.2370897516666668,0.0,0.0,,0.0887066,-21.48704669567263,-6.7996637133333335,3,-20.39899114
IrS2,164,0.1772477953110231,0.17946992458333266,0.0,0.0,,1.21e-05,-18.269625067132033,-5.919488483333333,3,-17.75846545
IrSe2,164,0.15485318594661854,0.1587990441666669,0.0,0.0,,0.2269178,-16.892345034403917,-5.454694873333334,3,-16.36408462
IrTe2,164,0.13722143394143807,0.14102740000000047,0.0,0.0,,5.1e-06,-16.27446572779582,-5.199884386666667,3,-15.599653159999999
K2C2H2O6,4,0.0,0.05316012083333366,4.463159928806036,4.4708,,0.0,-76.7730145699305,-6.232892509166667,12,-74.79471011
K2C4,129,1.3316460241207946,1.3364119074999996,0.37360568331425537,0.3969000000000005,,2.0007258,-31.496292915574116,-5.205295451666667,6,-31.23177271
K2C4H6O6,2,0.10845661199907476,0.1352773882638889,4.672078406045388,4.6766,,0.0,-108.83800939989679,-5.935104305555556,18,-106.8318775
K2Cl2O6,11,0.06648555661043716,0.06448360962499855,5.441482161252496,5.5369,,0.0,-44.0227012385552,-4.252408342,10,-42.52408342
K2Mn2P2,129,0.02787789468240831,0.022158768333335743,0.0,0.0,,2.8568293,-34.949747924880654,-5.612817491666667,6,-33.67690495
K4As4O8,57,0.0,0.0,4.166703109934298,4.1418,,-0.0,-89.42237741126665,-5.45303714125,16,-87.24859426
Li2B2,51,1.014436918542539,0.6507002024999999,0.0,0.0,,0.0633735,-13.772594507042575,-3.8203075375,4,-15.28123015
Li2Cl2O4,113,0.15338332760737283,0.12329182250000059,3.3471805718311938,3.4167,,-0.0,-33.96387629947468,-4.1505150175,8,-33.20412014
Li2H2O2,129,0.0,0.0061513216666657655,3.935352440756461,3.9169,,-0.0,-30.179338873273444,-4.955081986666666,6,-29.73049192
Li2H4N2O6,7,0.06997616680588552,0.07108232457828567,2.637147771238901,2.7443,,-0.0,-78.86671055321455,-5.503318,14,-77.046452
Li2PdH2,123,0.063627682974154,0.05117306599999871,0.0,0.0,,-1.93e-05,-16.25658661877721,-3.514110574,5,-17.57055287
Li2PtH2,123,0.04584368393444649,0.027308860333333573,0.0,0.0,,5e-07,-19.185042286793358,-3.770057122,5,-18.85028561
Li2V4O10,59,0.037307667271683886,0.15835306374999902,0.30942803424950416,0.7069999999999999,1.9996212917527507,1.9991646,-125.78732355967475,-7.03988709125,16,-112.63819346
Li6H2O8Te2,11,1.9737298215558337e-16,0.0035524802777722186,4.036854149464261,3.9792,,0.0,-95.66205234194084,-5.191048322222223,18,-93.4388698
LiC12,191,0.0,0.0,0.0,0.0,,7e-06,-112.74546271797345,-8.666570565384616,13,-112.66541735
LiMnSe2,156,0.1764372400366614,0.1471958677941183,0.0,0.0,,4.000534,-20.829483143252382,-5.0478253775,4,-20.19130151
Mg2Br4,51,0.11411771289353645,0.12066921333333358,,3.4674,,-0.0,-18.082366803177077,-3.011344063333333,6,-18.06806438
Mg2Cl4,51,0.13933321759298986,0.14537310666666725,4.50389946664683,4.574800000000001,,0.0,-20.861917126162794,-3.4763048266666665,6,-20.85782896
Mg2F4,51,0.3313072522087494,0.37209663499999923,,5.9279,,-0.0,-29.370979307079235,-4.956948868333334,6,-29.74169321
Mg2I4,51,0.08920306849496562,0.09391999666666662,2.6385354198822393,2.6502,,0.0,-15.103083471917595,-2.5162868366666666,6,-15.09772102
Mg2Mn2Ge2,129,0.24892027266367953,0.24404274354166589,0.0,0.0,,4.4326138,-31.366831730483227,-5.077777891666667,6,-30.46666735
Mg2P2S6,162,0.0,0.0,2.7957583759134126,3.0539999999999994,,0.0,-46.16420958894917,-4.638631073,10,-46.38631073
Mg2P2Se6,162,3.6853186409047114e-05,0.0,2.048689255752951,2.4219,,0.0007812,-41.01655800048388,-4.101112716,10,-41.01112716
Mg3H4O9Si2,157,0.0011110581905822887,0.02623922833333392,3.35016987944099,3.7282999999999995,,0.0,-115.35493766154843,-6.317491897777778,18,-113.71485416
MgBr2,115,0.06495174668312605,0.07260191666666671,4.264617899800461,4.3051,,0.0,-9.18868130021977,-3.05941136,3,-9.17823408
MgBr2,164,0.0,0.0,4.588106457672427,4.851,,-0.0,-9.383536540269148,-3.1284670899999996,3,-9.38540127
MgCl2,115,0.07895950953478614,0.08570197666666735,5.292984488993644,5.3366,,0.0,-10.612079687256008,-3.5359759566666664,3,-10.60792787
MgCl2,164,2.9605947323337506e-16,0.002327253333333612,5.94118234136039,6.0688,,0.0,-10.848958215860366,-3.617753296666667,3,-10.85325989
MgF2,115,0.19635377009474433,0.23684919666666637,,6.7101,,-0.0,-15.090350099881633,-5.092196306666667,3,-15.27658892
MgF2,164,0.07071396287776939,0.1097854766666666,7.534444494178011,7.5159,,-0.0,-15.467269521532558,-5.219260026666666,3,-15.657780079999998
MgH2O2,164,0.009127442701000988,0.008789378000000347,3.351730821000856,3.5454,,0.0,-27.353852193706082,-5.370726846,5,-26.85363423
MgI2,115,0.03953939326748657,0.04563551666666665,3.4561932032195894,3.5367999999999995,,-0.0,-7.7005327616412345,-2.5645713166666666,3,-7.693713949999999
MgI2,164,0.0012461386178583094,0.0,3.2728220824909773,3.6569,,-0.0,-7.815412525590119,-2.6066888466666667,3,-7.82006654
MgN8,83,1.3419932336511797,1.0700369418107405,0.6637070699107008,0.6129999999999995,,6.0084904,-57.63211908414211,-6.344189698888889,9,-57.09770729
Mn2Br2S4Sb2,10,0.10198798658248638,0.11165518500000271,0.1239968153605111,0.24619999999999997,9.999972672380403,10.0139314,-51.848547269426696,-5.038032807,10,-50.38032807
Mn2Br2Sb2Se4,26,0.08733975957592807,0.08004586749999909,0.26497200525578757,0.11529999999999996,9.999945720154411,10.0024995,-49.104638623719744,-4.74573853,10,-47.4573853
Mn2Cl2S4Sb2,26,0.08396522736750178,,0.3548686789929185,0.2120000000000002,10.000340298858262,10.0167694,-53.088284660392894,,10,
Mn2Cl6,162,0.07254543793541846,0.0,0.038917064392313794,0.007100000000000328,8.000288901364804,7.9990169,-36.8084260511328,-4.60332007375,8,-36.82656059
Mn2F2O2,59,0.038208160796141755,0.09872721208333335,0.0,0.0,,8.0002553,-44.75776737430598,-6.677618675000001,6,-40.06571205
Mn2H4O8S2,7,0.0821549482925823,0.05134191417928591,2.1119055200037824,4.1741,10.000069544781693,10.0009796,-100.732260650023,-6.0645199875,16,-97.0323198
Mn2I2Sb2Se4,10,0.11550849182175389,0.07239779149999936,0.05408350450971611,0.07380000000000009,9.997796747482543,10.0059557,-47.7903259370984,-4.6231622539999995,10,-46.23162254
Mn2Na2As2,129,0.06841253551362454,0.07344978888889031,0.0,0.0,,2.9949152,-32.764734684375064,-5.277142906666667,6,-31.66285744
Mn2O4,59,0.11957981254587106,0.16700452083333328,,0.0,,6.0011711,-49.17510839976879,-6.958522783333334,6,-41.7511367
Mn2P2S6,162,0.030832962770843596,0.008239218027776829,0.10795503496439007,0.6553999999999998,10.00004051350171,10.0012143,-58.35550286255165,-5.779576856,10,-57.79576856
Mn2P2Se6,162,0.07389804481262599,0.0,0.10046509461510134,0.45020000000000016,9.99999972113974,10.001951,-53.46728556489811,-5.266123193,10,-52.66123193
Mn2S2,129,0.0,0.11958559999999974,0.0,0.0,,2.5684674,-29.544417223910447,-7.1410056075,4,-28.56402243
Mn2Se2,129,0.03817631200116095,0.03273537249999947,0.0,0.0,,2.7242214,-27.654156048394658,-6.65190267,4,-26.60761068
Mn2Sn2Sr2,129,0.38887506710828773,0.3722951666666683,,0.0,,7.9951742,-31.262112686653907,-5.031098131666666,6,-30.186588789999995
Mn2Sr2Ge2,129,0.24044838591207038,0.2341219300000006,0.0,0.0,,4.9700269,-32.83084274062486,-5.335858341666667,6,-32.01515005
Mn2Sr4Cl2O6,129,0.0,0.001226104880973189,0.0,0.0,,8.007546,-94.10999965555474,-6.279023430714285,14,-87.90632803
Mn2Te2,129,0.11742204620424887,0.09545189249999897,,0.0,,8.6339532,-25.97263030910016,-6.14796717,4,-24.59186868
MnBr2,164,0.0,0.002541029999999722,1.476963132838237,1.5185,5.000035067039988,4.9992096,-15.233449289623012,-4.953326916666667,3,-14.85998075
MnCl2,164,0.0,0.0,1.797392779552207,1.7650000000000001,5.000193140945228,4.9993704,-16.46695944294954,-5.368149166666666,3,-16.1044475
MnF12Sb2,2,0.0,0.0,1.7422329568417458,3.1845,4.999977388442421,5.000785,-74.40312528858843,-4.925884358,15,-73.88826537
MnF2,164,0.8877518888953766,0.09015683666666607,,3.7363000000000004,,4.999926,-17.352992289220325,-6.337007633333333,3,-19.0110229
MnH2O2,164,0.08829363683263339,0.02779340649999895,0.2494604913143978,1.3653000000000002,5.000027310140175,5.0144506,-32.1526055566689,-6.091756334,5,-30.45878167
MnI2,164,0.0,0.0,0.8773370741518457,1.1068000000000002,4.999967758201764,4.9992064,-13.932075722616855,-4.519665183333333,3,-13.558995549999999
MnO2,164,0.018068721956711425,0.014279824166665733,1.1321890142198083,1.9487000000000005,2.9992856866534883,3.0000237,-24.892087471651873,-7.11124748,3,-21.33374244
MnRe2O8,147,0.0,0.0,1.564921433880198,3.0592999999999995,4.999991226719474,5.000708,-93.0571099867024,-8.233714503636364,11,-90.57085954
MnS2,164,0.0,0.0,0.0,0.0,,2.9966391,-19.57331392893568,-6.350959203333333,3,-19.05287761
MnSe2,164,1.4802973661668753e-16,0.0,0.0,0.0,,2.8420534,-18.090127219612643,-5.84727603,3,-17.54182809
MnTe2,164,1.1102230246251565e-16,0.0,0.0,0.0,,2.7582772,-16.7255844171305,-5.351679363333333,3,-16.05503809
Mo2Br4O4,26,3.552713678800501e-16,0.03928544699999659,1.4238016259735184,1.1624999999999996,,-0.0,-63.08217856924954,-5.062062920000001,10,-50.62062920000001
Mo2Br6,12,0.06012764246040536,0.05764250999999998,0.0,1.0679000000000003,,6.0029367,-36.29993535502566,-4.4580634825,8,-35.66450786
Mo2Cl6,12,0.0,0.06064426305555504,0.6387043439586959,0.1261000000000001,,1.9980362,-40.46247691253768,-4.897998065,8,-39.18398452
Mo2F6,162,0.0,0.10733762250000023,0.5966774766557026,4.314500000000001,,5.9999391,-51.16569797917872,-5.65603595,8,-45.2482876
Mo2I6,162,0.10072089044943294,0.0,0.976534823129736,0.9125999999999999,,6.003142,-32.96323619523971,-4.03010469375,8,-32.24083755
Mo2O10P2,85,2.5376526277146434e-16,0.01458126928571346,1.0398255296320027,3.1591,,1.9997482,-113.27264970792191,-7.245739352857143,14,-101.44035094
Mo2O6,11,0.0,0.03289036531249856,2.0674670309309464,1.5067999999999993,,0.0,-69.17620509835727,-6.99833781625,8,-55.98670253
Mo2S2,129,0.3156976331076118,0.34317357125000036,0.0,0.0,,0.2573387,-32.06050200533736,-7.79970194,4,-31.19880776
Mo2S4,11,0.18014169385649956,0.18629332833333212,0.05102847991953441,0.04360000000000008,,0.0,-43.16135957373263,-7.050093,6,-42.300558
Mo2Se2,129,0.2633533763733533,0.2885441512500009,0.0,0.0,,0.3389728,-30.439829888459897,-7.389897775,4,-29.5595911
Mo2Se4,11,0.10942414771310283,0.11268521666666675,0.04109179138608565,0.01429999999999998,,0.0,-39.92556656296401,-6.504456331666667,6,-39.02673799
Mo2Te2,129,0.2236631927125199,0.23528244124999986,0.0,0.0,,1.95e-05,-28.92852048970918,-6.981433075,4,-27.9257323
Mo2Te4,11,0.012877034022279169,0.021324551666666025,0.0,0.0,,-3e-07,-36.94949284693231,-5.964949440000001,6,-35.78969664
Mo2V2O10,85,0.0,0.05254234089286847,0.0030682904120213905,1.8118000000000003,1.999989153677442,2.0125424,-121.0159439203857,-7.297291497142857,14,-102.16208096
Mo2Zn2O12Te2,18,0.007299163627072305,0.019569016805554895,3.1180395311619353,3.1117,,-0.0,-121.85530461097,-5.936340288333334,18,-106.85412519
Mo2Zn2O8,13,0.05432720881770899,0.04168012333333326,2.9151884501885874,3.0685,,0.0,-87.90561359086387,-6.202705513333334,12,-74.43246616