formula,sym_val,ehull_c2db,decomp_energy_m2,gap_c2db,gap_m2,magmom_u_c2db,total_magnetization_m2,energy_c2db,energy_per_atom_m2,natoms_m2,total_energy_m2
Cu2F4,14,0.011148038970539767,0.0,0.8252403198535525,0.4618000000000002,2.001917937558108,1.9996942,-23.26796124921322,-4.084398593333334,6,-24.506391560000004
Cu2H4O10S2,2,0.0,0.05406907655555493,0.45112268100817854,0.23380000000000045,0.9936353175267973,1.9987859,-99.35623404998908,-5.412327052777778,18,-97.42188695
Cu2H4O10Se2,2,0.003993171323014109,0.04469850666666808,0.608535248612176,0.0,0.0,0.0138709,-92.20564137062732,-5.006535918333333,18,-90.11764653
Cu2Hg2Cl2Se2,26,0.03034819207968209,0.033522671875000576,0.8333741578974041,0.8203,0.0,-0.0,-22.55984673707907,-2.74830123625,8,-21.98640989
Cu2I2,129,0.008306815201718276,0.014321027499999861,1.86503334441587,2.0728,0.0,0.0,-10.940371111747028,-2.95104975,4,-11.804199
Cu2I2,164,0.0,0.0011808449999999304,1.786890780618711,2.0219,0.0,-0.0,-10.973598372553901,-2.9633849725,4,-11.85353989
Cu2I2Te4,17,0.00860902721572998,0.0,0.8355125578221512,0.8589,0.0,-0.0,-24.1212325328552,-3.0785730725,8,-24.62858458
Cu2I4,12,0.07365393520942298,0.0700613450000005,0.0,0.0,,0.0798451,-13.597185347800462,-2.4132055866666664,6,-14.479233519999998
Cu2I4O12,4,0.03030328199526306,0.09212195333333284,0.7347158790434802,0.5059999999999998,2.0001736628319806,2.0000981,-78.18235546872184,-4.357618433333333,18,-78.4371318
Cu2O4S,21,0.022902060880298336,0.04481241535714453,2.053268915022008,2.1967999999999996,0.0,-0.0,-38.06468918880748,-5.436526232857142,7,-38.05568363
Cu2O6Si2,51,0.060734361856829365,0.10797307699999692,0.42503154415487376,0.1070000000000002,2.0007494375125314,2.0058959,-66.95855339185981,-6.6890854090000005,10,-66.89085409
Cu2S2,10,0.1265233772185339,0.1325823366666672,0.6235293040444798,0.6829000000000005,0.0,0.0,-15.851113378494462,-4.1791575475,4,-16.71663019
Cu2S2,59,0.24090666661812188,0.25920104166666746,,0.0,,0.0,-15.39358022089611,-4.0525388425,4,-16.21015537
Cu2S4Sb2,26,0.06286595717242083,0.05554878548611075,0.3568729081799229,0.37329999999999997,0.0,-0.0,-34.135871225425554,-4.2996128725,8,-34.39690298
Cu2Sb2Se4,26,0.07242612136804061,0.07249628937499963,0.18252302872129444,0.15229999999999988,0.0,0.0,-31.28520715836507,-3.93323062375,8,-31.46584499
Cu2Se2,10,0.1009240174204491,0.1066636841666666,0.44711084243526233,0.3567,0.0,-0.0,-14.479370693253507,-3.8154852525,4,-15.26194101
Cu2Se2,129,0.06935239975001029,0.07194277666666649,0.0,0.0,,3e-06,-14.605657163935263,-3.85020616,4,-15.40082464
Cu2Sr2,191,0.12919681081727763,0.07556288099999975,0.0,0.0,,-0.0085644,-10.67996768043575,-2.856339945,4,-11.42535978
Cu2Te2,59,0.0,0.0,0.0,0.0,,-0.0,-14.117736447084226,-3.6826873425,4,-14.73074937
Cu2V2O8,51,0.0956598752589611,0.07191984666666595,0.529579133058296,0.2903000000000002,,7e-06,-82.67178638144951,-6.369720410833334,12,-76.43664493
Cu2WS4,111,0.0,0.00687360595238129,1.5342814677474648,1.5945,0.0,0.0,-38.623617813197725,-5.839784722857142,7,-40.87849306
Cu2WSe4,111,0.0,0.0,1.2346198779097095,1.2721,0.0,-0.0,-35.26776747020438,-5.345131145714285,7,-37.41591802
Cu4Cl4H4O4,14,0.028757625954313415,0.07547402156250005,0.40258888463828857,0.019099999999999895,,3.9999629,-67.02795824821042,-4.22278868125,16,-67.5646189
Cu4F4H4O4,14,0.04076178651689499,0.10239672000000066,0.3839123541907066,0.21469999999999967,3.9950612157386707,3.9991101,-72.54523919460435,-4.604491921875,16,-73.67187075
Cu4O12Se4,14,0.0015056386435864156,0.036296782499999125,0.385266167840177,0.1344000000000003,3.9957144085146066,-6e-07,-103.80387760914725,-5.125780479,20,-102.51560958
Cu4O12Te4,14,0.026805136227384806,0.0697312312499978,0.04349261176199448,0.0019000000000000128,4.002980971204508,-0.0,-105.81338597169108,-5.205505029999999,20,-104.11010059999998
Cu4Se2,51,0.08274538555097759,0.09848734499999923,0.10034973326190832,0.025700000000000056,,3e-07,-21.921807125742603,-3.9101016000000004,6,-23.4606096
CuBr,187,0.08855246477102652,0.06061835999999987,1.0237021928664132,1.0676,0.0,-0.0,-5.6921441111069635,-3.057576515,2,-6.11515303
CuBr2,115,0.03352174614874818,0.045552946666666205,0.0,0.0,,0.0011248,-7.7167672742322395,-2.71879835,3,-8.15639505
CuCl2,115,0.061207548890141794,0.07358462666666687,0.0,0.0,,0.6969875,-8.589790181941162,-3.0136082133333333,3,-9.04082464
CuF2,115,0.09122124059798982,0.10339045166666683,0.0,0.19589999999999996,,1.0000203,-11.39376101972426,-4.0250317933333335,3,-12.07509538
CuI,187,0.08267076216550784,0.08685315749999978,1.2670597944461095,1.4754,0.0,0.0,-5.321457661945935,-2.87851762,2,-5.75703524
CuI2,115,0.0,0.0,0.0,0.0,,6e-06,-7.0195544795285,-2.48979447,3,-7.469383410000001
CuInP2Se6,149,0.016837871689910598,0.018235038374996293,0.48920210181495216,0.5503999999999998,0.0,0.0,-40.18713774471738,-4.057106961000001,10,-40.57106961000001
CuS2,164,0.42414005357101264,0.40232650333333275,0.0,0.0,,0.0039954,-10.984250565393825,-3.8174969266666667,3,-11.45249078
CuSe2,164,0.26685767409449274,0.2564321650000001,0.0,0.0,,-2.45e-05,-10.141583290591356,-3.522683983333333,3,-10.56805195
CuSr2Br2O2,123,0.0,0.0,0.0,0.0,,-2.5e-06,-34.14795014177851,-4.882834424285714,7,-34.17984097
CuSr2Cl2O2,123,-2.5376526277146434e-16,0.0033854073809553853,0.0,0.0,,1.14e-05,-35.454669830483425,-5.069603107142858,7,-35.48722175
CuSr2I2O2,123,2.5376526277146434e-16,0.0,0.0,0.0,,2.4e-06,-32.539870471492804,-4.652622125714286,7,-32.56835488
CuV2O6,12,0.12883272066681822,0.1645397588888926,0.19543945758439296,0.0,1.000349602958055,0.9994635,-67.4939072657903,-6.771693457777777,9,-60.94524112
F2Ge,164,0.16929983188335504,0.23711889333333325,,2.7028999999999996,,0.0,-13.686259421383987,-4.659451583333333,3,-13.978354750000001
F2Ge,187,0.33413845651347945,0.40081262666666717,,2.8844999999999996,,-0.0,-13.191743547493614,-4.4957578499999995,3,-13.487273549999998
F2Si,164,0.9118965979676114,1.0396351766666667,,1.8030999999999997,,-0.0,-13.628166760306467,-4.628483036666666,3,-13.88544911
F2Si,187,1.144368578150693,1.2030302599999994,,1.8157999999999994,,0.0,-12.930750819757222,-4.465087953333334,3,-13.39526386
F4Ge,123,3.552713678800501e-16,0.06343542200000041,4.2074122873057505,4.2531,,-0.0,-23.067326181833582,-4.707081024,5,-23.53540512
Fe2Br6,162,0.0,0.0,0.04183926480438371,0.04010000000000025,9.998190861301625,1.9515484,-30.625557657528677,-3.679775365,8,-29.43820292
Fe2Cl2O2,59,0.06588272643265232,0.0,0.0,1.8549000000000002,,10.0004027,-37.223796670545326,-5.360244321666666,6,-32.16146593
Fe2Cl6,162,0.0895403729955665,0.0,0.013307077666159906,0.39590000000000014,9.998811318586958,9.998626,-34.03264814916617,-4.201712585,8,-33.61370068
Fe2F2O2,59,0.0,0.05520260333333571,0.0,1.9567999999999999,,10.0037296,-41.06127078444433,-6.019020983333333,6,-36.1141259
Fe2Ga2S5,164,0.1579569007323258,0.17860515388888842,0.0,0.0,,7.4361138,-48.158298408015604,-5.265120825555556,9,-47.38608743
Fe2Ga2S5,187,0.13586516587124986,0.1558209661111123,0.0,0.0,,7.1894018,-48.35712402176529,-5.287905013333333,9,-47.59114511999999
Fe2I6,162,0.020355471393497915,0.015126017500000088,0.0,0.057599999999999874,,-2.0038147,-27.566507637013533,-3.3144122175,8,-26.51529774
Fe2Li2As2,129,0.09667605837438605,0.1050325066666673,0.0,0.0,,-0.7165852,-33.22973746475787,-5.350995869999999,6,-32.10597522
Fe2Li2P2,129,0.11214902948572103,0.07141072174242069,0.0,0.0,,0.0452337,-35.80145886819095,-5.795257976666666,6,-34.77154786
Fe2Mo2Cl2O8,129,0.0,0.022899511428571273,0.9511808639827235,2.202,10.000587287057416,10.0076689,-107.82733712421977,-6.3126093249999995,14,-88.37653055
Fe2Na2As2,129,0.06394157980083766,0.05970097000000241,0.0,0.0,,-0.1457345,-31.315443050838365,-5.027421988333333,6,-30.164531929999995
Fe2O4,59,0.057920247306340635,0.2403753806250002,0.0,0.39369999999999994,,8.002574,-45.048190241965166,-6.062531128333333,6,-36.37518677
Fe2P2S6,162,0.13216411622832433,0.13793343231818067,0.0,0.0,,8.0036111,-55.81191505678674,-5.493022323,10,-54.930223229999996
Fe2S2,129,0.0,0.0,0.0,0.0,,3.2e-06,-28.222200430239646,-6.8049258875,4,-27.21970355
Fe2Se2,129,0.00854751690344635,0.0,0.0,0.0,,-0.2347032,-26.094911439510433,-6.2481303675,4,-24.99252147
Fe2Sr3Br2O5,123,0.0,0.009422847760415465,0.0,0.9118999999999999,,10.0116919,-76.72886684018285,-5.8283355425,12,-69.94002651
Fe2Sr3Cl2O5,123,0.0,0.01785372249999906,0.0,0.8717999999999999,,10.0085753,-78.11957543390884,-5.9413330175,12,-71.29599621
Fe2Sr4Br2O6,129,0.0,0.0,0.0,1.0727,,10.0406199,-89.48705067149285,-5.897388799285714,14,-82.56344319
Fe2Sr4Cl2O6,129,0.0,0.0,0.0,1.0212,,10.0235291,-90.85907470258024,-5.995166697142857,14,-83.93233376
Fe2Ta2Te6,11,0.023521025787284787,0.024307136555552944,0.0,0.0,,3.8317601,-59.70591185802471,-6.200924059,10,-62.009240590000005
Fe2Te2,129,0.0820006639645765,0.08676353874999965,0.0,0.0,,4.5611696,-24.744779805985768,-5.84517008,4,-23.38068032
Fe2W2Cl2O8,129,0.0,0.08470521500000494,1.0854812714487458,2.4814000000000007,10.000033045422144,10.0099496,-109.52280663255993,-6.505202548571428,14,-91.07283568
Fe3GeTe2,187,0.0209693958044862,0.014512552916667865,0.0,0.0,,6.4234046,-38.810104143840796,-6.170941208333333,6,-37.02564725
Fe3S4,187,0.3332811168370254,0.34558236642857043,0.0,0.0,,-0.1941679,-44.67817485822378,-6.149159171428572,7,-43.0441142
Fe3Te4,164,0.20735176764007587,0.20719602000000048,,0.0,,-0.0004537,-39.652410289022654,-5.36360942,7,-37.54526594
Fe4Nb4Te8,53,0.002726626150727718,0.025336287083333353,0.0,0.0,,7.2087762,-108.64791619680277,-6.53051048125,16,-104.4881677
FeBr2,164,0.0,0.0,0.0,0.0,,3.999431,-13.603734893817848,-4.34786554,3,-13.043596619999999
FeCl2,164,1.4802973661668753e-16,0.0,0.0,0.0,,3.9993176,-14.836405305108277,-4.761434306666667,3,-14.28430292
FeF2,164,0.03604441645734724,0.43139477999999976,0.0,0.0,,4.001313,-18.066449096331503,-5.162416123333333,3,-15.48724837
FeGa2S4,164,0.04503589145992289,0.09588047285714385,0.8624348700155927,0.0,,4.0059674,-35.153559059267245,-4.95824526,7,-34.70771682
FeH2O2,164,0.26445874099902617,0.2128216475000002,0.0,0.0,,4.0710037,-29.817050490859337,-5.4239866999999995,5,-27.1199335
FeHfCl6,149,0.1025089248917943,0.018204872500000135,1.0918547153536942,0.09450000000000003,3.999992350465447,3.998871,-37.856950096951834,-5.08214652625,8,-40.65717221
FeI2,164,0.0,0.0,0.0,0.0,,3.9992859,-12.358254191564173,-3.9323267466666665,3,-11.79698024
FeO2,164,0.0,0.25175374895833347,0.0,0.0,,3.9997453,-22.697855862901605,-6.05115276,3,-18.15345828
FeS2,164,0.2045129928029823,0.2064241349999998,0.0,0.0,,1.8484434,-18.175403267434366,-5.871536996666666,3,-17.61461099
FeSe2,164,0.10610831866449051,0.10834350833333417,0.0,0.0,,1.6775507,-16.769084289945784,-5.385698766666667,3,-16.1570963
FeTe2,164,0.14596985217277533,0.13997365833333397,0.0,0.0,,1.5551474,-15.593180644140785,-4.949327543333333,3,-14.84798263
Ga2Cl2Te2,31,0.0,0.0,2.1626809113806296,2.2963999999999993,,-0.0,-20.166823103218363,-3.3837199983333335,6,-20.30231999
Ga2F4H10N4,10,0.06770519215742717,0.10206365533333361,2.656143579400003,2.8144,,-0.0,-99.08691478417421,-4.982766384,20,-99.65532768
Ga2F6,47,0.014377489459039161,0.056334374999999604,5.007989275229093,5.271699999999999,,0.0,-36.87365680923274,-4.7157272975,8,-37.72581838
Ga2Ge2Te2,164,0.0,0.0037317649999999425,0.6744023696359973,0.7689,,-0.0,-22.758597120821157,-3.8402288683333334,6,-23.04137321
Ga2In2S6,31,0.0027387406219700596,0.011040691666666547,1.9812857092812997,2.0327,,0.0,-42.18250915759993,-4.245479509,10,-42.45479509
Ga2Mn2S5,164,0.030522571327652435,0.050672140555555245,0.0,0.0,,9.5480977,-50.957489708986124,-5.606461306666667,9,-50.45815176
Ga2MnS4,156,0.12181203635839515,0.13876620428571318,0.0,0.0,,4.3518286,-35.607299984471005,-5.060236454285715,7,-35.42165518
Ga2NiS4,164,0.031650172653564033,0.05499174708333232,0.16959658482543416,0.0,2.000599369768036,2.0088723,-33.21759068187806,-4.576261055714285,7,-32.03382739
Ga2S2,164,0.004411288224408949,0.007388472499999743,2.1798158071014546,2.3015,,0.0,-16.60137235191844,-4.2247236025,4,-16.89889441
Ga2S2,187,0.0,0.52004188,2.320546162907923,0.8716000000000002,,-0.0,-16.619017504816075,-3.712070195,4,-14.84828078
Ga2S3,164,0.11702470801514409,0.1496217290000006,,0.5559999999999996,,0.0,-20.772586544291162,-4.20322356,5,-21.016117799999996
Ga2Sb2,129,0.21264006703515426,0.22305411500000005,,0.0,,0.0,-14.475425410249143,-3.51869463,4,-14.07477852
Ga2Se2,12,0.04708834260883865,0.05378742999999986,1.6090940802801192,1.6545,,-0.0,-14.988738617341266,-3.798176375,4,-15.1927055
Ga2Se2,164,0.0036204321325423727,0.006777280000000108,1.6438489454686864,1.6296,,0.0,-15.162610259246451,-3.845186525,4,-15.3807461
Ga2Se2,187,0.0,0.002109291250000034,1.7646068281960714,1.8934,,0.0,-15.17709198777662,-3.849848915,4,-15.39939566
Ga2Se3,164,0.14595664941728898,0.15973935000000017,,0.0,,-3.6e-06,-18.49181769333092,-3.731685604,5,-18.65842802
Ga2Se5,12,0.0062684711126590464,0.0175351746875001,1.4490757877947664,1.6559,,-0.0,-26.14332922607366,-3.75905391,7,-26.31337737
Ga2Te2,12,0.05291843479959618,0.06329639000000009,0.9459804335042952,0.9947000000000001,,0.0,-13.499734252156596,-3.3912714575,4,-13.56508583
Ga2Te2,164,0.005824670797448583,0.011939710000000048,1.2693666930958636,1.3756,,0.0,-13.688109308165187,-3.4426281375,4,-13.77051255
Ga2Te2,187,0.0022034272881524264,0.3686514599999997,1.2966556208609772,0.23180000000000023,,-0.0,-13.702594282202371,-3.0859163875,4,-12.34366555
Ga2Te5,12,0.0,0.006725175714286102,0.8596502695152948,1.1579,,-0.0,-23.550529577910996,-3.3414574242857142,7,-23.39020197
Ga2Y2I2,164,0.0,0.0,0.0,0.0,,-3e-06,-24.568313621750075,-4.72796179,6,-28.36777074
Ga2Zn2S5,156,0.15232845474929432,0.1641912711111111,,0.0,,-1.3e-05,-34.05564120128867,-3.834588911111111,9,-34.5113002
Ga2Zn3S6,156,0.13894382625414295,0.14980396818181774,,0.0,,0.0025725,-40.8191995294025,-3.759911823636364,11,-41.35903006
Ga2ZnS4,156,0.1449213317503332,0.16046040571428755,,0.0,,-6.41e-05,-27.491163647614236,-3.9782781042857143,7,-27.84794673
GaAs,187,0.47954972388131667,0.4694746600000004,0.0,0.0,,-0.0026603,-7.304332010971964,-3.725426605,2,-7.45085321
GaN,187,0.4162454216340503,0.354160845,1.8765379810832648,2.1592,,0.0,-11.262019659891372,-5.803293195,2,-11.60658639
Ge2,164,0.4816672135157072,0.4843442850000006,0.02506291135927441,0.08620000000000028,,0.0,-8.068368150468233,-4.13840192,2,-8.27680384
Ge2H2,164,0.08242257688746202,0.02641457819000026,0.9200963558790143,1.0684,,0.0,-15.351012232435705,-3.904826855,4,-15.61930742
Ge2O2,129,0.1599308152856347,0.1812926237500001,2.1015239048627876,2.194,,-0.0,-23.585013367263958,-5.817173285,4,-23.26869314
Ge2S2,31,0.03086125998168132,0.029559713281249955,1.7137806305009027,1.7197,,0.0,-18.173522832235875,-4.59620054,4,-18.38480216
Ge2Se2,31,0.024886527032165873,0.01788248499999945,1.1211421895230416,1.2541,,-0.0,-16.81808285829648,-4.248881185,4,-16.99552474
Ge2Te2,31,0.05417996503246014,0.059211349999999996,0.815331286945854,0.9309000000000001,,0.0,-15.598282051955332,-3.914372555,4,-15.65749022
Ge2Te2,59,0.08988162597058658,0.10300220500000012,1.0645997003851568,1.1057,,-0.0,-15.455475408202826,-3.8705817,4,-15.4823268
Ge3O9Sb2,174,0.047764377365908724,0.03874342553571708,3.7656153297864856,3.9732000000000003,,-0.0,-89.57651048875951,-6.239929537857143,14,-87.35901353
Ge4P8,26,0.002175098731985603,0.01464021210317501,1.3326511360217288,1.3179999999999998,,0.0,-60.953703069028826,-5.1297294775,12,-61.55675373
Ge4Sb8,26,0.05126342753717831,0.07236489083333364,0.9419590161864018,1.0369000000000002,,0.0,-52.69743451074308,-4.220391360833333,12,-50.64469633
GeI2,164,0.0026261131971487086,0.0,1.9539583637002689,2.1318,,-0.0,-8.553219372857304,-2.894579983333333,3,-8.68373995
GeS,156,0.05312900693416722,0.053532156250000185,2.449635146788082,2.4592,,0.0,-9.042225922212966,-4.57713648,2,-9.15427296
GeS2,115,0.04867197092959626,0.05742108937499957,1.3444942134779445,1.4088999999999996,,0.0,-13.565019124555752,-4.5693438466666665,3,-13.70803154
GeS2,164,0.12265027167945242,0.14108752270833325,0.7290217340043323,0.7156999999999996,,-0.0,-13.343084222306183,-4.485677413333334,3,-13.45703224
GeSe,156,0.0398665982389943,0.040792703750000214,2.2175112051577077,2.2646,,-0.0,-8.379081286734584,-4.23606424,2,-8.47212848
GeSe2,115,0.051074282850726384,0.06771719812499999,0.5641520177770518,0.6056999999999997,,-0.0,-12.125038587556627,-4.06803459,3,-12.20410377
GeSe2,164,0.12880825448982888,0.14660687145833284,0.0,0.0,,-0.0,-11.89183667263932,-3.989144916666667,3,-11.96743475
GeTe,156,0.08727032568880677,0.07561663999999979,1.473578448873159,1.7502,,0.0,-7.732960304664973,-3.881919615,2,-7.76383923
GeTe2,164,0.1451883494141152,0.15158875666666694,0.0,0.0,,-7.6e-06,-10.676745796697228,-3.5449388899999996,3,-10.63481667
H2Si2,164,0.005492010396343616,0.027474587812499784,2.171198903815278,2.1852,,-0.0,-17.425229655015702,-4.3716880625,4,-17.48675225
H4O12Te4,4,0.004080205564611106,0.03217876954167043,2.5790017312260756,2.5196000000000005,,-0.0,-107.94903282466937,-5.2065481545,20,-104.13096309
Hf2Br2N2,164,0.00717423884511111,0.012341806666665178,1.9547918438538208,3.135,,0.0,-45.01446415455773,-8.338628231666666,6,-50.031769389999994
Hf2Br2N2,59,0.0,0.0,2.063982761810762,2.1644,,-0.0,-45.057509587628395,-8.351212116666668,6,-50.10727270000001
Hf2Br4,11,0.0,0.0,0.8402050974613258,0.8580999999999999,,0.0,-28.330148570619965,-5.5564525966666665,6,-33.33871558
Hf2Br6,162,0.0,0.0,0.0,0.0,,1.9873476,-34.56521908733014,-4.95148799875,8,-39.61190399
Hf2Cl2,164,0.0,0.0,0.0,0.0,,1.2e-06,-23.309010838509703,-7.1540567475,4,-28.61622699
Hf2Cl2N2,164,0.0,0.0,2.3303561722892914,3.463,,0.0,-46.45316192874194,-8.581660053333334,6,-51.48996032
Hf2Cl4,11,0.04407856260613071,0.045762339166666166,0.8523099370875136,0.8628000000000002,,0.0,-31.16861331068829,-6.031051546666667,6,-36.18630928
Hf2F2,164,0.1774263491206387,0.11364979895833294,0.0,0.0,,-4e-06,-27.092974886857366,-8.1676680425,4,-32.67067217
Hf2F4,11,0.3786571073381104,0.41689927527777915,,1.4085999999999999,,-0.0,-38.321216578317774,-7.306769381666666,6,-43.84061629
Hf2Ge2Te8,31,0.007646626505691145,0.0,0.5650035089082932,0.7240000000000002,,-0.0,-55.246746425531384,-4.979592455833333,12,-59.755109469999994
Hf2I2,164,0.1750500834710047,0.05870317083333365,0.0,0.0,,0.0003411,-19.634334783085354,-6.2679946775,4,-25.07197871
Hf2I2N2,164,0.05515210270572505,0.0,0.5446836985839757,2.0543,,-0.0,-43.09882888468607,-8.018133285,6,-48.10879971
Hf2I4,11,0.06319326622196986,0.06080432944444514,0.6273989706635977,0.6316999999999999,,0.0,-25.277709292273528,-5.056704336666667,6,-30.340226020000003
Hf2S10,59,0.12799163167606586,0.0,,0.1875,,-0.0,-63.92506087853729,-5.755085270833334,12,-69.06102325
Hf2S2,129,0.5428536787347942,0.5161734575000008,0.0,0.0,,2.2e-06,-26.343942121905506,-7.8322662425,4,-31.32906497
Hf2S6,59,0.0,0.0,1.1567800561995498,1.1468,,0.0,-49.14869132895981,-6.78183713125,8,-54.25469705
Hf2Se10,59,0.0,0.0,0.33689237317134557,0.20489999999999986,,-0.0,-58.11882531223189,-5.246084035833333,12,-62.95300843
Hf2Se2,129,0.5722798197865293,0.5108859964999999,0.0,0.0,,7.44e-05,-24.38755497063416,-7.3278020175,4,-29.31120807
Hf2Se2Si2,129,0.0,0.0,0.0,0.0,,1.5e-06,-38.74649758934381,-7.28387209,6,-43.70323254
Hf2Se6,59,0.0032046256680142715,0.0,0.2718837669691667,0.36029999999999984,,-0.0,-44.039114784631934,-6.119421575,8,-48.9553726
Hf2Si2Te2,129,0.0,0.0,0.0,0.0,,2.55e-05,-36.5156421842374,-6.886005431666667,6,-41.31603259
Hf2Te10,59,0.0,0.0,0.15860218610147037,0.0,,-0.0,-52.52169788884822,-4.722955235,12,-56.67546281999999
Hf2Te2,129,0.4151569219816331,0.4225656650000005,0.0,0.0,,2.3033729,-22.533200744209417,-6.8127833125,4,-27.25113325
Hf2Te6,59,0.024286930039637333,0.025549210000000322,0.0,0.0,,4.8e-06,-39.19101390994366,-5.4517091025,8,-43.61367282
Hf3S2,123,0.04736221381439378,0.0427934220000008,0.0,0.0,,-7e-06,-36.22325719928154,-8.723106953999999,5,-43.61553477
Hf3Se2,123,0.002083282983225132,0.0,0.0,0.0,,1.8e-06,-34.17235850703085,-8.301792896,5,-41.50896448